48
model FeP(Im)(NO),S=1/2,bp str. Energy = -2609.188549711
Fe             0.007237       0.000000      -0.416299
N             -1.441398      -1.428026      -0.405960
N             -1.441398       1.428026      -0.405960
N              1.413706       1.421350      -0.246793
N              1.413706      -1.421350      -0.246793
N             -0.121094       0.000000       1.780901
N             -0.967985       0.000000       3.815904
C             -2.798825       1.237150      -0.525187
C             -2.798825      -1.237150      -0.525187
C              1.215851       2.784355      -0.216624
C              1.215851      -2.784355      -0.216624
C             -1.252844       2.789691      -0.353360
C             -1.252844      -2.789691      -0.353360
C             -2.522826       3.474567      -0.434751
C             -2.522826      -3.474567      -0.434751
C             -3.482607       2.511046      -0.545989
C             -3.482607      -2.511046      -0.545989
C              3.455081       2.509640      -0.175256
C              3.455081      -2.509640      -0.175256
C             -3.434270       0.000000      -0.589902
C              3.418019       0.000000      -0.230668
C             -0.018743       3.423409      -0.254800
C             -0.018743      -3.423409      -0.254800
C              2.777679       1.234968      -0.228185
C              2.777679      -1.234968      -0.228185
C              2.486186       3.469781      -0.161552
C              2.486186      -3.469781      -0.161552
C             -1.244291       0.000000       2.483645
C              0.405726       0.000000       3.968449
C              0.914157       0.000000       2.692713
H             -4.520330       0.000000      -0.691210
H             -4.559051       2.634875      -0.634567
H             -4.559051      -2.634875      -0.634567
H             -2.646913       4.554336      -0.415587
H             -2.646913      -4.554336      -0.415587
H             -0.016731       4.513581      -0.225724
H             -0.016731      -4.513581      -0.225724
H              2.604011       4.549713      -0.125718
H              2.604011      -4.549713      -0.125718
H              4.534295       2.635949      -0.149694
H              4.534295      -2.635949      -0.149694
H              4.508328       0.000000      -0.218466
H             -2.248311       0.000000       2.073596
H             -1.652856       0.000000       4.563155
H              0.880210       0.000000       4.942153
H              1.949347       0.000000       2.371925
N              0.200818       0.000000      -2.136253
O              1.046981       0.000000      -2.961033

