 Entering Gaussian System, Link 0=/opt/g09/g09/g09
 Input=n2_MP2.inp
 Output=n2_MP2.log
 Initial command:
 /opt/g09/g09/l1.exe "/tmp/Gau-12480.inp" -scrdir="/tmp/"
 Entering Link 1 = /opt/g09/g09/l1.exe PID=     12482.
  
 Copyright (c) 1988,1990,1992,1993,1995,1998,2003,2009,2013,
            Gaussian, Inc.  All Rights Reserved.
  
 This is part of the Gaussian(R) 09 program.  It is based on
 the Gaussian(R) 03 system (copyright 2003, Gaussian, Inc.),
 the Gaussian(R) 98 system (copyright 1998, Gaussian, Inc.),
 the Gaussian(R) 94 system (copyright 1995, Gaussian, Inc.),
 the Gaussian 92(TM) system (copyright 1992, Gaussian, Inc.),
 the Gaussian 90(TM) system (copyright 1990, Gaussian, Inc.),
 the Gaussian 88(TM) system (copyright 1988, Gaussian, Inc.),
 the Gaussian 86(TM) system (copyright 1986, Carnegie Mellon
 University), and the Gaussian 82(TM) system (copyright 1983,
 Carnegie Mellon University). Gaussian is a federally registered
 trademark of Gaussian, Inc.
  
 This software contains proprietary and confidential information,
 including trade secrets, belonging to Gaussian, Inc.
  
 This software is provided under written license and may be
 used, copied, transmitted, or stored only in accord with that
 written license.
  
 The following legend is applicable only to US Government
 contracts under FAR:
  
                    RESTRICTED RIGHTS LEGEND
  
 Use, reproduction and disclosure by the US Government is
 subject to restrictions as set forth in subparagraphs (a)
 and (c) of the Commercial Computer Software - Restricted
 Rights clause in FAR 52.227-19.
  
 Gaussian, Inc.
 340 Quinnipiac St., Bldg. 40, Wallingford CT 06492
  
  
 ---------------------------------------------------------------
 Warning -- This program may not be used in any manner that
 competes with the business of Gaussian, Inc. or will provide
 assistance to any competitor of Gaussian, Inc.  The licensee
 of this program is prohibited from giving any competitor of
 Gaussian, Inc. access to this program.  By using this program,
 the user acknowledges that Gaussian, Inc. is engaged in the
 business of creating and licensing software in the field of
 computational chemistry and represents and warrants to the
 licensee that it is not a competitor of Gaussian, Inc. and that
 it will not use this program in any manner prohibited above.
 ---------------------------------------------------------------
  

 Cite this work as:
 Gaussian 09, Revision D.01,
 M. J. Frisch, G. W. Trucks, H. B. Schlegel, G. E. Scuseria, 
 M. A. Robb, J. R. Cheeseman, G. Scalmani, V. Barone, B. Mennucci, 
 G. A. Petersson, H. Nakatsuji, M. Caricato, X. Li, H. P. Hratchian, 
 A. F. Izmaylov, J. Bloino, G. Zheng, J. L. Sonnenberg, M. Hada, 
 M. Ehara, K. Toyota, R. Fukuda, J. Hasegawa, M. Ishida, T. Nakajima, 
 Y. Honda, O. Kitao, H. Nakai, T. Vreven, J. A. Montgomery, Jr., 
 J. E. Peralta, F. Ogliaro, M. Bearpark, J. J. Heyd, E. Brothers, 
 K. N. Kudin, V. N. Staroverov, T. Keith, R. Kobayashi, J. Normand, 
 K. Raghavachari, A. Rendell, J. C. Burant, S. S. Iyengar, J. Tomasi, 
 M. Cossi, N. Rega, J. M. Millam, M. Klene, J. E. Knox, J. B. Cross, 
 V. Bakken, C. Adamo, J. Jaramillo, R. Gomperts, R. E. Stratmann, 
 O. Yazyev, A. J. Austin, R. Cammi, C. Pomelli, J. W. Ochterski, 
 R. L. Martin, K. Morokuma, V. G. Zakrzewski, G. A. Voth, 
 P. Salvador, J. J. Dannenberg, S. Dapprich, A. D. Daniels, 
 O. Farkas, J. B. Foresman, J. V. Ortiz, J. Cioslowski, 
 and D. J. Fox, Gaussian, Inc., Wallingford CT, 2013.
 
 ******************************************
 Gaussian 09:  ES64L-G09RevD.01 24-Apr-2013
                25-Mar-2026 
 ******************************************
 %chk=n2_MP2.chk
 ------------------------------------------------
 #P MP2/6-31G(d) Opt GFInput Pop=Full IOP(6/80=1)
 ------------------------------------------------
 1/18=20,19=15,38=1/1,3;
 2/9=110,12=2,17=6,18=5,40=1/2;
 3/5=1,6=6,7=1,11=9,16=1,24=10,25=1,30=1,71=1/1,2,3;
 4//1;
 5/5=2,38=5/2;
 8/6=4,10=2/1;
 9/15=2,16=-3/6;
 10/5=1/2;
 6/7=3,80=1/1;
 7/12=2/1,2,3,16;
 1/18=20,19=15/3(2);
 2/9=110/2;
 99//99;
 2/9=110/2;
 3/5=1,6=6,7=1,11=9,16=1,25=1,30=1,71=1/1,2,3;
 4/5=5,16=3,69=1/1;
 5/5=2,38=5/2;
 8/6=4,10=2/1;
 9/15=2,16=-3/6;
 10/5=1/2;
 7/12=2/1,2,3,16;
 1/18=20,19=15/3(-8);
 2/9=110/2;
 6/7=3,80=1/1;
 99//99;
 Leave Link    1 at Wed Mar 25 13:19:55 2026, MaxMem=           0 cpu:         0.0
 (Enter /opt/g09/g09/l101.exe)
 -------------------------------------
 optymalizacja geometrii n2 metoda MP2
 -------------------------------------
 Symbolic Z-matrix:
 Charge =  0 Multiplicity = 1
 N
 N                    1     1.098 
 
 NAtoms=      2 NQM=        2 NQMF=       0 NMMI=      0 NMMIF=      0
                NMic=       0 NMicF=      0.
                    Isotopes and Nuclear Properties:
 (Nuclear quadrupole moments (NQMom) in fm**2, nuclear magnetic moments (NMagM)
  in nuclear magnetons)

  Atom         1           2
 IAtWgt=          14          14
 AtmWgt=  14.0030740  14.0030740
 NucSpn=           2           2
 AtZEff=   0.0000000   0.0000000
 NQMom=    2.0440000   2.0440000
 NMagM=    0.4037610   0.4037610
 AtZNuc=   7.0000000   7.0000000
 Leave Link  101 at Wed Mar 25 13:19:55 2026, MaxMem=    33554432 cpu:         0.1
 (Enter /opt/g09/g09/l103.exe)

 GradGradGradGradGradGradGradGradGradGradGradGradGradGradGradGradGradGrad
 Berny optimization.
 Initialization pass.
                           ----------------------------
                           !    Initial Parameters    !
                           ! (Angstroms and Degrees)  !
 --------------------------                            --------------------------
 ! Name  Definition              Value          Derivative Info.                !
 --------------------------------------------------------------------------------
 ! R1    R(1,2)                  1.098          estimate D2E/DX2                !
 --------------------------------------------------------------------------------
 Trust Radius=3.00D-01 FncErr=1.00D-07 GrdErr=1.00D-07
 Number of steps in this run=     20 maximum allowed number of steps=    100.
 GradGradGradGradGradGradGradGradGradGradGradGradGradGradGradGradGradGrad

 Leave Link  103 at Wed Mar 25 13:19:55 2026, MaxMem=    33554432 cpu:         0.0
 (Enter /opt/g09/g09/l202.exe)
                          Input orientation:                          
 ---------------------------------------------------------------------
 Center     Atomic      Atomic             Coordinates (Angstroms)
 Number     Number       Type             X           Y           Z
 ---------------------------------------------------------------------
      1          7           0        0.000000    0.000000    0.000000
      2          7           0        0.000000    0.000000    1.098000
 ---------------------------------------------------------------------
 Stoichiometry    N2
 Framework group  D*H[C*(N.N)]
 Deg. of freedom     1
 Full point group                 D*H     NOp   8
 Largest Abelian subgroup         D2H     NOp   8
 Largest concise Abelian subgroup C2      NOp   2
                         Standard orientation:                         
 ---------------------------------------------------------------------
 Center     Atomic      Atomic             Coordinates (Angstroms)
 Number     Number       Type             X           Y           Z
 ---------------------------------------------------------------------
      1          7           0        0.000000    0.000000    0.549000
      2          7           0        0.000000    0.000000   -0.549000
 ---------------------------------------------------------------------
 Rotational constants (GHZ):      0.0000000     59.8713605     59.8713605
 Leave Link  202 at Wed Mar 25 13:19:55 2026, MaxMem=    33554432 cpu:         0.0
 (Enter /opt/g09/g09/l301.exe)
 Standard basis: 6-31G(d) (6D, 7F)
 Ernie: Thresh=  0.10000D-02 Tol=  0.10000D-05 Strict=F.
 AO basis set in the form of general basis input (Overlap normalization):
      1 0
 S   6 1.00       0.000000000000
      0.4173511460D+04  0.1834772160D-02
      0.6274579110D+03  0.1399462700D-01
      0.1429020930D+03  0.6858655181D-01
      0.4023432930D+02  0.2322408730D+00
      0.1282021290D+02  0.4690699481D+00
      0.4390437010D+01  0.3604551991D+00
 SP   3 1.00       0.000000000000
      0.1162636186D+02 -0.1149611817D+00  0.6757974388D-01
      0.2716279807D+01 -0.1691174786D+00  0.3239072959D+00
      0.7722183966D+00  0.1145851947D+01  0.7408951398D+00
 SP   1 1.00       0.000000000000
      0.2120314975D+00  0.1000000000D+01  0.1000000000D+01
 D   1 1.00       0.000000000000
      0.8000000000D+00  0.1000000000D+01
 ****
      2 0
 S   6 1.00       0.000000000000
      0.4173511460D+04  0.1834772160D-02
      0.6274579110D+03  0.1399462700D-01
      0.1429020930D+03  0.6858655181D-01
      0.4023432930D+02  0.2322408730D+00
      0.1282021290D+02  0.4690699481D+00
      0.4390437010D+01  0.3604551991D+00
 SP   3 1.00       0.000000000000
      0.1162636186D+02 -0.1149611817D+00  0.6757974388D-01
      0.2716279807D+01 -0.1691174786D+00  0.3239072959D+00
      0.7722183966D+00  0.1145851947D+01  0.7408951398D+00
 SP   1 1.00       0.000000000000
      0.2120314975D+00  0.1000000000D+01  0.1000000000D+01
 D   1 1.00       0.000000000000
      0.8000000000D+00  0.1000000000D+01
 ****

 There are     8 symmetry adapted cartesian basis functions of AG  symmetry.
 There are     1 symmetry adapted cartesian basis functions of B1G symmetry.
 There are     3 symmetry adapted cartesian basis functions of B2G symmetry.
 There are     3 symmetry adapted cartesian basis functions of B3G symmetry.
 There are     1 symmetry adapted cartesian basis functions of AU  symmetry.
 There are     8 symmetry adapted cartesian basis functions of B1U symmetry.
 There are     3 symmetry adapted cartesian basis functions of B2U symmetry.
 There are     3 symmetry adapted cartesian basis functions of B3U symmetry.
 There are     8 symmetry adapted basis functions of AG  symmetry.
 There are     1 symmetry adapted basis functions of B1G symmetry.
 There are     3 symmetry adapted basis functions of B2G symmetry.
 There are     3 symmetry adapted basis functions of B3G symmetry.
 There are     1 symmetry adapted basis functions of AU  symmetry.
 There are     8 symmetry adapted basis functions of B1U symmetry.
 There are     3 symmetry adapted basis functions of B2U symmetry.
 There are     3 symmetry adapted basis functions of B3U symmetry.
    30 basis functions,    56 primitive gaussians,    30 cartesian basis functions
     7 alpha electrons        7 beta electrons
       nuclear repulsion energy        23.6153763396 Hartrees.
 IExCor=    0 DFT=F Ex=HF Corr=None ExCW=0 ScaHFX=  1.000000
 ScaDFX=  1.000000  1.000000  1.000000  1.000000 ScalE2=  1.000000  1.000000
 IRadAn=      0 IRanWt=     -1 IRanGd=            0 ICorTp=0 IEmpDi=  4
 NAtoms=    2 NActive=    2 NUniq=    1 SFac= 4.00D+00 NAtFMM=   60 NAOKFM=F Big=F
 Integral buffers will be    131072 words long.
 Raffenetti 1 integral format.
 Two-electron integral symmetry is turned on.
 Leave Link  301 at Wed Mar 25 13:19:55 2026, MaxMem=    33554432 cpu:         0.0
 (Enter /opt/g09/g09/l302.exe)
 NPDir=0 NMtPBC=     1 NCelOv=     1 NCel=       1 NClECP=     1 NCelD=      1
         NCelK=      1 NCelE2=     1 NClLst=     1 CellRange=     0.0.
 One-electron integrals computed using PRISM.
 One-electron integral symmetry used in STVInt
 NBasis=    30 RedAO= T EigKep=  6.14D-03  NBF=     8     1     3     3     1     8     3     3
 NBsUse=    30 1.00D-06 EigRej= -1.00D+00 NBFU=     8     1     3     3     1     8     3     3
 Leave Link  302 at Wed Mar 25 13:19:55 2026, MaxMem=    33554432 cpu:         0.0
 (Enter /opt/g09/g09/l303.exe)
 DipDrv:  MaxL=1.
 Leave Link  303 at Wed Mar 25 13:19:55 2026, MaxMem=    33554432 cpu:         0.0
 (Enter /opt/g09/g09/l401.exe)
 ExpMin= 2.12D-01 ExpMax= 4.17D+03 ExpMxC= 6.27D+02 IAcc=1 IRadAn=         1 AccDes= 0.00D+00
 Harris functional with IExCor=  205 and IRadAn=       1 diagonalized for initial guess.
 HarFok:  IExCor=  205 AccDes= 0.00D+00 IRadAn=         1 IDoV= 1 UseB2=F ITyADJ=14
 ICtDFT=  3500011 ScaDFX=  1.000000  1.000000  1.000000  1.000000
 FoFCou: FMM=F IPFlag=           0 FMFlag=      100000 FMFlg1=           0
         NFxFlg=           0 DoJE=T BraDBF=F KetDBF=T FulRan=T
         wScrn=  0.000000 ICntrl=     500 IOpCl=  0 I1Cent=   200000004 NGrid=           0
         NMat0=    1 NMatS0=      1 NMatT0=    0 NMatD0=    1 NMtDS0=    0 NMtDT0=    0
 Petite list used in FoFCou.
 Harris En= -108.906109185726    
 JPrj=0 DoOrth=F DoCkMO=F.
 Initial guess orbital symmetries:
       Occupied  (SGG) (SGU) (SGG) (SGU) (PIU) (PIU) (SGG)
       Virtual   (PIG) (PIG) (SGU) (SGG) (PIU) (PIU) (SGG) (PIG)
                 (PIG) (SGU) (SGU) (DLTG) (DLTG) (PIU) (PIU) (DLTU)
                 (DLTU) (SGG) (PIG) (PIG) (SGU) (SGG) (SGU)
 The electronic state of the initial guess is 1-SGG.
 Leave Link  401 at Wed Mar 25 13:19:55 2026, MaxMem=    33554432 cpu:         0.0
 (Enter /opt/g09/g09/l502.exe)
 Closed shell SCF:
 Using DIIS extrapolation, IDIIS=  1040.
 Integral symmetry usage will be decided dynamically.
 Keep R1 ints in memory in symmetry-blocked form, NReq=959811.
 IVT=       21766 IEndB=       21766 NGot=    33554432 MDV=    33514620
 LenX=    33514620 LenY=    33513279
 Requested convergence on RMS density matrix=1.00D-08 within 128 cycles.
 Requested convergence on MAX density matrix=1.00D-06.
 Requested convergence on             energy=1.00D-06.
 No special actions if energy rises.
 FoFCou: FMM=F IPFlag=           0 FMFlag=           0 FMFlg1=           0
         NFxFlg=           0 DoJE=F BraDBF=F KetDBF=F FulRan=T
         wScrn=  0.000000 ICntrl=     600 IOpCl=  0 I1Cent=           0 NGrid=           0
         NMat0=    1 NMatS0=    465 NMatT0=    0 NMatD0=    1 NMtDS0=    0 NMtDT0=    0
 Petite list used in FoFCou.

 Cycle   1  Pass 1  IDiag  1:
 E= -108.920172384273    
 DIIS: error= 6.68D-02 at cycle   1 NSaved=   1.
 NSaved= 1 IEnMin= 1 EnMin= -108.920172384273     IErMin= 1 ErrMin= 6.68D-02
 ErrMax= 6.68D-02  0.00D+00 EMaxC= 1.00D-01 BMatC= 8.09D-02 BMatP= 8.09D-02
 IDIUse=3 WtCom= 3.32D-01 WtEn= 6.68D-01
 Coeff-Com:  0.100D+01
 Coeff-En:   0.100D+01
 Coeff:      0.100D+01
 Gap=     0.795 Goal=   None    Shift=    0.000
 GapD=    0.795 DampG=2.000 DampE=0.500 DampFc=1.0000 IDamp=-1.
 RMSDP=4.32D-03 MaxDP=2.74D-02              OVMax= 3.80D-02

 Cycle   2  Pass 1  IDiag  1:
 E= -108.941916383616     Delta-E=       -0.021743999343 Rises=F Damp=F
 DIIS: error= 5.88D-03 at cycle   2 NSaved=   2.
 NSaved= 2 IEnMin= 2 EnMin= -108.941916383616     IErMin= 2 ErrMin= 5.88D-03
 ErrMax= 5.88D-03  0.00D+00 EMaxC= 1.00D-01 BMatC= 9.74D-04 BMatP= 8.09D-02
 IDIUse=3 WtCom= 9.41D-01 WtEn= 5.88D-02
 Coeff-Com: -0.588D-01 0.106D+01
 Coeff-En:   0.000D+00 0.100D+01
 Coeff:     -0.553D-01 0.106D+01
 Gap=     0.783 Goal=   None    Shift=    0.000
 RMSDP=1.05D-03 MaxDP=1.39D-02 DE=-2.17D-02 OVMax= 8.47D-03

 Cycle   3  Pass 1  IDiag  1:
 E= -108.942577143573     Delta-E=       -0.000660759958 Rises=F Damp=F
 DIIS: error= 1.66D-03 at cycle   3 NSaved=   3.
 NSaved= 3 IEnMin= 3 EnMin= -108.942577143573     IErMin= 3 ErrMin= 1.66D-03
 ErrMax= 1.66D-03  0.00D+00 EMaxC= 1.00D-01 BMatC= 3.43D-05 BMatP= 9.74D-04
 IDIUse=3 WtCom= 9.83D-01 WtEn= 1.66D-02
 Coeff-Com: -0.895D-02 0.908D-01 0.918D+00
 Coeff-En:   0.000D+00 0.000D+00 0.100D+01
 Coeff:     -0.880D-02 0.893D-01 0.919D+00
 Gap=     0.782 Goal=   None    Shift=    0.000
 RMSDP=1.77D-04 MaxDP=1.28D-03 DE=-6.61D-04 OVMax= 2.15D-03

 Cycle   4  Pass 1  IDiag  1:
 E= -108.942619523307     Delta-E=       -0.000042379733 Rises=F Damp=F
 DIIS: error= 3.85D-04 at cycle   4 NSaved=   4.
 NSaved= 4 IEnMin= 4 EnMin= -108.942619523307     IErMin= 4 ErrMin= 3.85D-04
 ErrMax= 3.85D-04  0.00D+00 EMaxC= 1.00D-01 BMatC= 2.46D-06 BMatP= 3.43D-05
 IDIUse=3 WtCom= 9.96D-01 WtEn= 3.85D-03
 Coeff-Com:  0.386D-02-0.682D-01-0.151D+00 0.122D+01
 Coeff-En:   0.000D+00 0.000D+00 0.000D+00 0.100D+01
 Coeff:      0.384D-02-0.680D-01-0.151D+00 0.121D+01
 Gap=     0.782 Goal=   None    Shift=    0.000
 RMSDP=7.92D-05 MaxDP=7.75D-04 DE=-4.24D-05 OVMax= 7.24D-04

 Cycle   5  Pass 1  IDiag  1:
 E= -108.942622790370     Delta-E=       -0.000003267063 Rises=F Damp=F
 DIIS: error= 2.61D-05 at cycle   5 NSaved=   5.
 NSaved= 5 IEnMin= 5 EnMin= -108.942622790370     IErMin= 5 ErrMin= 2.61D-05
 ErrMax= 2.61D-05  0.00D+00 EMaxC= 1.00D-01 BMatC= 7.80D-09 BMatP= 2.46D-06
 IDIUse=1 WtCom= 1.00D+00 WtEn= 0.00D+00
 Coeff-Com: -0.176D-03 0.354D-02 0.254D-02-0.710D-01 0.107D+01
 Coeff:     -0.176D-03 0.354D-02 0.254D-02-0.710D-01 0.107D+01
 Gap=     0.782 Goal=   None    Shift=    0.000
 RMSDP=6.39D-06 MaxDP=6.86D-05 DE=-3.27D-06 OVMax= 4.23D-05

 Cycle   6  Pass 1  IDiag  1:
 E= -108.942622802146     Delta-E=       -0.000000011776 Rises=F Damp=F
 DIIS: error= 4.57D-06 at cycle   6 NSaved=   6.
 NSaved= 6 IEnMin= 6 EnMin= -108.942622802146     IErMin= 6 ErrMin= 4.57D-06
 ErrMax= 4.57D-06  0.00D+00 EMaxC= 1.00D-01 BMatC= 2.99D-10 BMatP= 7.80D-09
 IDIUse=1 WtCom= 1.00D+00 WtEn= 0.00D+00
 Coeff-Com: -0.260D-04 0.498D-03 0.155D-02-0.694D-02-0.212D+00 0.122D+01
 Coeff:     -0.260D-04 0.498D-03 0.155D-02-0.694D-02-0.212D+00 0.122D+01
 Gap=     0.782 Goal=   None    Shift=    0.000
 RMSDP=1.62D-06 MaxDP=1.74D-05 DE=-1.18D-08 OVMax= 1.09D-05

 Cycle   7  Pass 1  IDiag  1:
 E= -108.942622802624     Delta-E=       -0.000000000478 Rises=F Damp=F
 DIIS: error= 4.86D-07 at cycle   7 NSaved=   7.
 NSaved= 7 IEnMin= 7 EnMin= -108.942622802624     IErMin= 7 ErrMin= 4.86D-07
 ErrMax= 4.86D-07  0.00D+00 EMaxC= 1.00D-01 BMatC= 2.46D-12 BMatP= 2.99D-10
 IDIUse=1 WtCom= 1.00D+00 WtEn= 0.00D+00
 Coeff-Com:  0.904D-05-0.175D-03-0.449D-03 0.281D-02 0.344D-01-0.262D+00
 Coeff-Com:  0.123D+01
 Coeff:      0.904D-05-0.175D-03-0.449D-03 0.281D-02 0.344D-01-0.262D+00
 Coeff:      0.123D+01
 Gap=     0.782 Goal=   None    Shift=    0.000
 RMSDP=9.99D-08 MaxDP=8.98D-07 DE=-4.78D-10 OVMax= 9.97D-07

 Cycle   8  Pass 1  IDiag  1:
 E= -108.942622802628     Delta-E=       -0.000000000004 Rises=F Damp=F
 DIIS: error= 3.85D-08 at cycle   8 NSaved=   8.
 NSaved= 8 IEnMin= 8 EnMin= -108.942622802628     IErMin= 8 ErrMin= 3.85D-08
 ErrMax= 3.85D-08  0.00D+00 EMaxC= 1.00D-01 BMatC= 2.28D-14 BMatP= 2.46D-12
 IDIUse=1 WtCom= 1.00D+00 WtEn= 0.00D+00
 Coeff-Com: -0.110D-05 0.222D-04 0.637D-04-0.394D-03-0.332D-02 0.296D-01
 Coeff-Com: -0.208D+00 0.118D+01
 Coeff:     -0.110D-05 0.222D-04 0.637D-04-0.394D-03-0.332D-02 0.296D-01
 Coeff:     -0.208D+00 0.118D+01
 Gap=     0.782 Goal=   None    Shift=    0.000
 RMSDP=8.92D-09 MaxDP=8.39D-08 DE=-4.04D-12 OVMax= 8.31D-08

 SCF Done:  E(RHF) =  -108.942622803     A.U. after    8 cycles
            NFock=  8  Conv=0.89D-08     -V/T= 2.0046
 KE= 1.084403919315D+02 PE=-3.025697668322D+02 EE= 6.157137575849D+01
 Leave Link  502 at Wed Mar 25 13:19:55 2026, MaxMem=    33554432 cpu:         0.0
 (Enter /opt/g09/g09/l801.exe)
 ExpMin= 2.12D-01 ExpMax= 4.17D+03 ExpMxC= 6.27D+02 IAcc=3 IRadAn=         5 AccDes= 0.00D+00
 HarFok:  IExCor=  205 AccDes= 0.00D+00 IRadAn=         5 IDoV=-2 UseB2=F ITyADJ=14
 ICtDFT= 12500011 ScaDFX=  1.000000  1.000000  1.000000  1.000000
 Largest valence mixing into a core orbital is  1.79D-04
 Largest core mixing into a valence orbital is  4.60D-05
 Range of M.O.s used for correlation:     3    30
 NBasis=    30 NAE=     7 NBE=     7 NFC=     2 NFV=     0
 NROrb=     28 NOA=     5 NOB=     5 NVA=    23 NVB=    23
 Leave Link  801 at Wed Mar 25 13:19:55 2026, MaxMem=    33554432 cpu:         0.0
 (Enter /opt/g09/g09/l906.exe)
 Frozen-core derivative calculation, NFC=   2 NFV=   0.
 FulOut=F Deriv=T AODrv=T NAtomX=     2
   MMem=        3801  MDisk=           5 MDiskD=           5
  W3Min=        6300 MinDsk=       64175 NBas6D=          30
 NBas2D=         519    NTT=         465    LW2=     2040000
    MDV=    33538775 MDiskM=       14601 NBas2p=         294
 Fully direct method using O(ONN) memory.
 IMap=   1   2   3   4   5   6   7
 JobTyp=1 Pass  1:  I=   3 to   7 NPSUse=  1 ParTrn=F ParDer=F DoDerP=T.
 Spin components of T(2) and E(2):
     alpha-alpha T2 =       0.1437699182D-01 E2=     -0.4130009569D-01
     alpha-beta  T2 =       0.7923686594D-01 E2=     -0.2274317575D+00
     beta-beta   T2 =       0.1437699182D-01 E2=     -0.4130009569D-01
 The integrals were generated   1 times.
 ANorm=    0.1052611443D+01
 E2 =    -0.3100319489D+00 EUMP2 =    -0.10925265475154D+03
 Leave Link  906 at Wed Mar 25 13:19:55 2026, MaxMem=    33554432 cpu:         0.1
 (Enter /opt/g09/g09/l1002.exe)
 Minotr:  Closed shell wavefunction.
          Computing MP2/KS-MP2 derivatives.
          Using Z-Vector for PSCF gradient.
          Skipping F1 and S1 gradient terms here.
          IDoAtm=11
          Frozen-core window.
          Direct CPHF calculation.
          Differentiating once with respect to electric field.
                with respect to dipole field.
          Differentiating once with respect to nuclear coordinates.
          Using symmetry in CPHF.
          Requested convergence is 1.0D-10 RMS, and 1.0D-09 maximum.
          NewPWx=F KeepS1=T KeepF1=T KeepIn=T MapXYZ=F SortEE=F KeepMc=T.
          MDV=      33554380 using IRadAn=       0.
 Keep R1 ints in memory in symmetry-blocked form, NReq=942691.
 FoFCou: FMM=F IPFlag=           0 FMFlag=           0 FMFlg1=           0
         NFxFlg=           0 DoJE=F BraDBF=F KetDBF=F FulRan=T
         wScrn=  0.000000 ICntrl=     600 IOpCl=  0 I1Cent=           0 NGrid=           0
         NMat0=    1 NMatS0=    465 NMatT0=    0 NMatD0=    1 NMtDS0=    0 NMtDT0=    0
 Petite list used in FoFCou.
          Solving linear equations separately, MaxMat=       0.
          There are     1 degrees of freedom in the 1st order CPHF.  IDoFFX=0 NUNeed=     1.
 LinEq1:  Iter=  0 NonCon=     1 RMS=1.04D-02 Max=6.79D-02 NDo=     1
 AX will form     1 AO Fock derivatives at one time.
 LinEq1:  Iter=  1 NonCon=     1 RMS=2.12D-03 Max=1.91D-02 NDo=     1
 LinEq1:  Iter=  2 NonCon=     1 RMS=2.63D-04 Max=1.56D-03 NDo=     1
 LinEq1:  Iter=  3 NonCon=     1 RMS=3.46D-05 Max=2.70D-04 NDo=     1
 LinEq1:  Iter=  4 NonCon=     1 RMS=2.24D-06 Max=1.17D-05 NDo=     1
 LinEq1:  Iter=  5 NonCon=     1 RMS=1.83D-07 Max=9.34D-07 NDo=     1
 LinEq1:  Iter=  6 NonCon=     1 RMS=6.94D-09 Max=3.82D-08 NDo=     1
 LinEq1:  Iter=  7 NonCon=     1 RMS=3.09D-10 Max=1.63D-09 NDo=     1
 LinEq1:  Iter=  8 NonCon=     0 RMS=2.54D-11 Max=1.57D-10 NDo=     1
 Linear equations converged to 1.000D-10 1.000D-09 after     8 iterations.
 End of Minotr F.D. properties file   721 does not exist.
 End of Minotr F.D. properties file   722 does not exist.
 End of Minotr F.D. properties file   788 does not exist.
 Leave Link 1002 at Wed Mar 25 13:19:55 2026, MaxMem=    33554432 cpu:         0.1
 (Enter /opt/g09/g09/l601.exe)
 Copying SCF densities to generalized density rwf, IOpCl= 0 IROHF=0.

 **********************************************************************

            Population analysis using the SCF density.

 **********************************************************************

 Orbital symmetries:
       Occupied  (SGG) (SGU) (SGG) (SGU) (SGG) (PIU) (PIU)
       Virtual   (PIG) (PIG) (SGU) (SGG) (PIU) (PIU) (SGG) (PIG)
                 (PIG) (SGU) (SGU) (DLTG) (DLTG) (PIU) (PIU) (DLTU)
                 (DLTU) (SGG) (PIG) (PIG) (SGU) (SGG) (SGU)
 The electronic state is 1-SGG.
 Alpha  occ. eigenvalues --  -15.69673 -15.69333  -1.47360  -0.77638  -0.63001
 Alpha  occ. eigenvalues --   -0.61163  -0.61163
 Alpha virt. eigenvalues --    0.17026   0.17026   0.58519   0.77436   0.83660
 Alpha virt. eigenvalues --    0.83660   0.83801   1.01474   1.01474   1.06985
 Alpha virt. eigenvalues --    1.49001   1.71783   1.71783   1.85319   1.85319
 Alpha virt. eigenvalues --    2.25896   2.25896   2.73366   2.94361   2.94361
 Alpha virt. eigenvalues --    3.22952   3.67975   3.98965
     Molecular Orbital Coefficients:
                           1         2         3         4         5
                       (SGG)--O  (SGU)--O  (SGG)--O  (SGU)--O  (SGG)--O
     Eigenvalues --   -15.69673 -15.69333  -1.47360  -0.77638  -0.63001
   1 1   N  1S          0.70339   0.70398  -0.15933  -0.14643  -0.05515
   2        2S          0.01687   0.01721   0.33730   0.33262   0.10710
   3        2PX         0.00000   0.00000   0.00000   0.00000   0.00000
   4        2PY         0.00000   0.00000   0.00000   0.00000   0.00000
   5        2PZ        -0.00143  -0.00231  -0.22002   0.22130   0.45862
   6        3S          0.00028  -0.00109   0.18520   0.48806   0.33200
   7        3PX         0.00000   0.00000   0.00000   0.00000   0.00000
   8        3PY         0.00000   0.00000   0.00000   0.00000   0.00000
   9        3PZ         0.00044   0.00041  -0.03444   0.07977   0.20265
  10        4XX        -0.00267  -0.00258  -0.01155   0.00154   0.00669
  11        4YY        -0.00267  -0.00258  -0.01155   0.00154   0.00669
  12        4ZZ        -0.00207  -0.00067   0.03066  -0.01751  -0.03000
  13        4XY         0.00000   0.00000   0.00000   0.00000   0.00000
  14        4XZ         0.00000   0.00000   0.00000   0.00000   0.00000
  15        4YZ         0.00000   0.00000   0.00000   0.00000   0.00000
  16 2   N  1S          0.70339  -0.70398  -0.15933   0.14643  -0.05515
  17        2S          0.01687  -0.01721   0.33730  -0.33262   0.10710
  18        2PX         0.00000   0.00000   0.00000   0.00000   0.00000
  19        2PY         0.00000   0.00000   0.00000   0.00000   0.00000
  20        2PZ         0.00143  -0.00231   0.22002   0.22130  -0.45862
  21        3S          0.00028   0.00109   0.18520  -0.48806   0.33200
  22        3PX         0.00000   0.00000   0.00000   0.00000   0.00000
  23        3PY         0.00000   0.00000   0.00000   0.00000   0.00000
  24        3PZ        -0.00044   0.00041   0.03444   0.07977  -0.20265
  25        4XX        -0.00267   0.00258  -0.01155  -0.00154   0.00669
  26        4YY        -0.00267   0.00258  -0.01155  -0.00154   0.00669
  27        4ZZ        -0.00207   0.00067   0.03066   0.01751  -0.03000
  28        4XY         0.00000   0.00000   0.00000   0.00000   0.00000
  29        4XZ         0.00000   0.00000   0.00000   0.00000   0.00000
  30        4YZ         0.00000   0.00000   0.00000   0.00000   0.00000
                           6         7         8         9        10
                       (PIU)--O  (PIU)--O  (PIG)--V  (PIG)--V  (SGU)--V
     Eigenvalues --    -0.61163  -0.61163   0.17026   0.17026   0.58519
   1 1   N  1S          0.00000   0.00000   0.00000   0.00000  -0.09242
   2        2S          0.00000   0.00000   0.00000   0.00000   0.20497
   3        2PX         0.00000   0.43346   0.43371   0.00000   0.00000
   4        2PY         0.43346   0.00000   0.00000   0.43371   0.00000
   5        2PZ         0.00000   0.00000   0.00000   0.00000  -0.06059
   6        3S          0.00000   0.00000   0.00000   0.00000   4.14838
   7        3PX         0.00000   0.24906   0.67984   0.00000   0.00000
   8        3PY         0.24906   0.00000   0.00000   0.67984   0.00000
   9        3PZ         0.00000   0.00000   0.00000   0.00000  -2.74935
  10        4XX         0.00000   0.00000   0.00000   0.00000  -0.00276
  11        4YY         0.00000   0.00000   0.00000   0.00000  -0.00276
  12        4ZZ         0.00000   0.00000   0.00000   0.00000   0.08430
  13        4XY         0.00000   0.00000   0.00000   0.00000   0.00000
  14        4XZ         0.00000  -0.04770   0.01344   0.00000   0.00000
  15        4YZ        -0.04770   0.00000   0.00000   0.01344   0.00000
  16 2   N  1S          0.00000   0.00000   0.00000   0.00000   0.09242
  17        2S          0.00000   0.00000   0.00000   0.00000  -0.20497
  18        2PX         0.00000   0.43346  -0.43371   0.00000   0.00000
  19        2PY         0.43346   0.00000   0.00000  -0.43371   0.00000
  20        2PZ         0.00000   0.00000   0.00000   0.00000  -0.06059
  21        3S          0.00000   0.00000   0.00000   0.00000  -4.14838
  22        3PX         0.00000   0.24906  -0.67984   0.00000   0.00000
  23        3PY         0.24906   0.00000   0.00000  -0.67984   0.00000
  24        3PZ         0.00000   0.00000   0.00000   0.00000  -2.74935
  25        4XX         0.00000   0.00000   0.00000   0.00000   0.00276
  26        4YY         0.00000   0.00000   0.00000   0.00000   0.00276
  27        4ZZ         0.00000   0.00000   0.00000   0.00000  -0.08430
  28        4XY         0.00000   0.00000   0.00000   0.00000   0.00000
  29        4XZ         0.00000   0.04770   0.01344   0.00000   0.00000
  30        4YZ         0.04770   0.00000   0.00000   0.01344   0.00000
                          11        12        13        14        15
                       (SGG)--V  (PIU)--V  (PIU)--V  (SGG)--V  (PIG)--V
     Eigenvalues --     0.77436   0.83660   0.83660   0.83801   1.01474
   1 1   N  1S          0.02944   0.00000   0.00000   0.00797   0.00000
   2        2S          0.54591   0.00000   0.00000  -0.64796   0.00000
   3        2PX         0.00000   0.63370   0.00000   0.00000   0.00000
   4        2PY         0.00000   0.00000   0.63370   0.00000  -0.72729
   5        2PZ        -0.31282   0.00000   0.00000  -0.42115   0.00000
   6        3S         -0.45298   0.00000   0.00000   1.00534   0.00000
   7        3PX         0.00000  -0.61973   0.00000   0.00000   0.00000
   8        3PY         0.00000   0.00000  -0.61973   0.00000   1.17051
   9        3PZ         0.84193   0.00000   0.00000   0.49274   0.00000
  10        4XX         0.07683   0.00000   0.00000  -0.15833   0.00000
  11        4YY         0.07683   0.00000   0.00000  -0.15833   0.00000
  12        4ZZ         0.17574   0.00000   0.00000  -0.16456   0.00000
  13        4XY         0.00000   0.00000   0.00000   0.00000   0.00000
  14        4XZ         0.00000  -0.10105   0.00000   0.00000   0.00000
  15        4YZ         0.00000   0.00000  -0.10105   0.00000  -0.07212
  16 2   N  1S          0.02944   0.00000   0.00000   0.00797   0.00000
  17        2S          0.54591   0.00000   0.00000  -0.64796   0.00000
  18        2PX         0.00000   0.63370   0.00000   0.00000   0.00000
  19        2PY         0.00000   0.00000   0.63370   0.00000   0.72729
  20        2PZ         0.31282   0.00000   0.00000   0.42115   0.00000
  21        3S         -0.45298   0.00000   0.00000   1.00534   0.00000
  22        3PX         0.00000  -0.61973   0.00000   0.00000   0.00000
  23        3PY         0.00000   0.00000  -0.61973   0.00000  -1.17051
  24        3PZ        -0.84193   0.00000   0.00000  -0.49274   0.00000
  25        4XX         0.07683   0.00000   0.00000  -0.15833   0.00000
  26        4YY         0.07683   0.00000   0.00000  -0.15833   0.00000
  27        4ZZ         0.17574   0.00000   0.00000  -0.16456   0.00000
  28        4XY         0.00000   0.00000   0.00000   0.00000   0.00000
  29        4XZ         0.00000   0.10105   0.00000   0.00000   0.00000
  30        4YZ         0.00000   0.00000   0.10105   0.00000  -0.07212
                          16        17        18        19        20
                       (PIG)--V  (SGU)--V  (SGU)--V  (DLTG)--  (DLTG)--
     Eigenvalues --     1.01474   1.06985   1.49001   1.71783   1.71783
   1 1   N  1S          0.00000  -0.08206  -0.01419   0.00000   0.00000
   2        2S          0.00000  -0.40113  -1.21856   0.00000   0.00000
   3        2PX        -0.72729   0.00000   0.00000   0.00000   0.00000
   4        2PY         0.00000   0.00000   0.00000   0.00000   0.00000
   5        2PZ         0.00000  -0.64827   0.34685   0.00000   0.00000
   6        3S          0.00000   2.46001   6.72616   0.00000   0.00000
   7        3PX         1.17051   0.00000   0.00000   0.00000   0.00000
   8        3PY         0.00000   0.00000   0.00000   0.00000   0.00000
   9        3PZ         0.00000  -0.57793  -3.06413   0.00000   0.00000
  10        4XX         0.00000  -0.04422  -0.26331   0.56405   0.00000
  11        4YY         0.00000  -0.04422  -0.26331  -0.56405   0.00000
  12        4ZZ         0.00000  -0.36118   0.08599   0.00000   0.00000
  13        4XY         0.00000   0.00000   0.00000   0.00000   0.65131
  14        4XZ        -0.07212   0.00000   0.00000   0.00000   0.00000
  15        4YZ         0.00000   0.00000   0.00000   0.00000   0.00000
  16 2   N  1S          0.00000   0.08206   0.01419   0.00000   0.00000
  17        2S          0.00000   0.40113   1.21856   0.00000   0.00000
  18        2PX         0.72729   0.00000   0.00000   0.00000   0.00000
  19        2PY         0.00000   0.00000   0.00000   0.00000   0.00000
  20        2PZ         0.00000  -0.64827   0.34685   0.00000   0.00000
  21        3S          0.00000  -2.46001  -6.72616   0.00000   0.00000
  22        3PX        -1.17051   0.00000   0.00000   0.00000   0.00000
  23        3PY         0.00000   0.00000   0.00000   0.00000   0.00000
  24        3PZ         0.00000  -0.57793  -3.06413   0.00000   0.00000
  25        4XX         0.00000   0.04422   0.26331   0.56405   0.00000
  26        4YY         0.00000   0.04422   0.26331  -0.56405   0.00000
  27        4ZZ         0.00000   0.36118  -0.08599   0.00000   0.00000
  28        4XY         0.00000   0.00000   0.00000   0.00000   0.65131
  29        4XZ        -0.07212   0.00000   0.00000   0.00000   0.00000
  30        4YZ         0.00000   0.00000   0.00000   0.00000   0.00000
                          21        22        23        24        25
                       (PIU)--V  (PIU)--V  (DLTU)--  (DLTU)--  (SGG)--V
     Eigenvalues --     1.85319   1.85319   2.25896   2.25896   2.73366
   1 1   N  1S          0.00000   0.00000   0.00000   0.00000   0.13078
   2        2S          0.00000   0.00000   0.00000   0.00000   0.32336
   3        2PX         0.29179   0.00000   0.00000   0.00000   0.00000
   4        2PY         0.00000   0.29179   0.00000   0.00000   0.00000
   5        2PZ         0.00000   0.00000   0.00000   0.00000  -0.33615
   6        3S          0.00000   0.00000   0.00000   0.00000  -0.53121
   7        3PX        -0.07032   0.00000   0.00000   0.00000   0.00000
   8        3PY         0.00000  -0.07032   0.00000   0.00000   0.00000
   9        3PZ         0.00000   0.00000   0.00000   0.00000   0.56501
  10        4XX         0.00000   0.00000   0.67571   0.00000   0.67897
  11        4YY         0.00000   0.00000  -0.67571   0.00000   0.67897
  12        4ZZ         0.00000   0.00000   0.00000   0.00000  -0.55094
  13        4XY         0.00000   0.00000   0.00000   0.78024   0.00000
  14        4XZ         0.59585   0.00000   0.00000   0.00000   0.00000
  15        4YZ         0.00000   0.59585   0.00000   0.00000   0.00000
  16 2   N  1S          0.00000   0.00000   0.00000   0.00000   0.13078
  17        2S          0.00000   0.00000   0.00000   0.00000   0.32336
  18        2PX         0.29179   0.00000   0.00000   0.00000   0.00000
  19        2PY         0.00000   0.29179   0.00000   0.00000   0.00000
  20        2PZ         0.00000   0.00000   0.00000   0.00000   0.33615
  21        3S          0.00000   0.00000   0.00000   0.00000  -0.53121
  22        3PX        -0.07032   0.00000   0.00000   0.00000   0.00000
  23        3PY         0.00000  -0.07032   0.00000   0.00000   0.00000
  24        3PZ         0.00000   0.00000   0.00000   0.00000  -0.56501
  25        4XX         0.00000   0.00000  -0.67571   0.00000   0.67897
  26        4YY         0.00000   0.00000   0.67571   0.00000   0.67897
  27        4ZZ         0.00000   0.00000   0.00000   0.00000  -0.55094
  28        4XY         0.00000   0.00000   0.00000  -0.78024   0.00000
  29        4XZ        -0.59585   0.00000   0.00000   0.00000   0.00000
  30        4YZ         0.00000  -0.59585   0.00000   0.00000   0.00000
                          26        27        28        29        30
                       (PIG)--V  (PIG)--V  (SGU)--V  (SGG)--V  (SGU)--V
     Eigenvalues --     2.94361   2.94361   3.22952   3.67975   3.98965
   1 1   N  1S          0.00000   0.00000  -0.00198  -0.24022  -0.35189
   2        2S          0.00000   0.00000   0.51161   1.30173   0.55480
   3        2PX        -0.26157   0.00000   0.00000   0.00000   0.00000
   4        2PY         0.00000  -0.26157   0.00000   0.00000   0.00000
   5        2PZ         0.00000   0.00000  -1.13421  -0.14119   0.44482
   6        3S          0.00000   0.00000   3.12191   0.79158   3.87070
   7        3PX        -0.46871   0.00000   0.00000   0.00000   0.00000
   8        3PY         0.00000  -0.46871   0.00000   0.00000   0.00000
   9        3PZ         0.00000   0.00000  -1.64367   0.06137  -1.20156
  10        4XX         0.00000   0.00000  -0.50967  -0.78137  -1.07030
  11        4YY         0.00000   0.00000  -0.50967  -0.78137  -1.07030
  12        4ZZ         0.00000   0.00000   1.31538  -1.10603  -1.21261
  13        4XY         0.00000   0.00000   0.00000   0.00000   0.00000
  14        4XZ         1.11494   0.00000   0.00000   0.00000   0.00000
  15        4YZ         0.00000   1.11494   0.00000   0.00000   0.00000
  16 2   N  1S          0.00000   0.00000   0.00198  -0.24022   0.35189
  17        2S          0.00000   0.00000  -0.51161   1.30173  -0.55480
  18        2PX         0.26157   0.00000   0.00000   0.00000   0.00000
  19        2PY         0.00000   0.26157   0.00000   0.00000   0.00000
  20        2PZ         0.00000   0.00000  -1.13421   0.14119   0.44482
  21        3S          0.00000   0.00000  -3.12191   0.79158  -3.87070
  22        3PX         0.46871   0.00000   0.00000   0.00000   0.00000
  23        3PY         0.00000   0.46871   0.00000   0.00000   0.00000
  24        3PZ         0.00000   0.00000  -1.64367  -0.06137  -1.20156
  25        4XX         0.00000   0.00000   0.50967  -0.78137   1.07030
  26        4YY         0.00000   0.00000   0.50967  -0.78137   1.07030
  27        4ZZ         0.00000   0.00000  -1.31538  -1.10603   1.21261
  28        4XY         0.00000   0.00000   0.00000   0.00000   0.00000
  29        4XZ         1.11494   0.00000   0.00000   0.00000   0.00000
  30        4YZ         0.00000   1.11494   0.00000   0.00000   0.00000
     Density Matrix:
                           1         2         3         4         5
   1 1   N  1S          2.08042
   2        2S         -0.16874   0.47291
   3        2PX         0.00000   0.00000   0.37578
   4        2PY         0.00000   0.00000   0.00000   0.37578
   5        2PZ        -0.05055   0.09690   0.00000   0.00000   0.61545
   6        3S         -0.23971   0.52070   0.00000   0.00000   0.43905
   7        3PX         0.00000   0.00000   0.21591   0.00000   0.00000
   8        3PY         0.00000   0.00000   0.00000   0.21591   0.00000
   9        3PZ        -0.03355   0.07327   0.00000   0.00000   0.23634
  10        4XX        -0.00490  -0.00551   0.00000   0.00000   0.01192
  11        4YY        -0.00490  -0.00551   0.00000   0.00000   0.01192
  12        4ZZ        -0.00519   0.00252   0.00000   0.00000  -0.04875
  13        4XY         0.00000   0.00000   0.00000   0.00000   0.00000
  14        4XZ         0.00000   0.00000  -0.04135   0.00000   0.00000
  15        4YZ         0.00000   0.00000   0.00000  -0.04135   0.00000
  16 2   N  1S          0.01231  -0.02239   0.00000   0.00000   0.08558
  17        2S         -0.02239   0.02919   0.00000   0.00000  -0.19737
  18        2PX         0.00000   0.00000   0.37578   0.00000   0.00000
  19        2PY         0.00000   0.00000   0.00000   0.37578   0.00000
  20        2PZ        -0.08558   0.19737   0.00000   0.00000  -0.41952
  21        3S          0.04924  -0.12857   0.00000   0.00000   0.00701
  22        3PX         0.00000   0.00000   0.21591   0.00000   0.00000
  23        3PY         0.00000   0.00000   0.00000   0.21591   0.00000
  24        3PZ        -0.01202   0.03289   0.00000   0.00000  -0.16573
  25        4XX         0.00328  -0.00738   0.00000   0.00000   0.01053
  26        4YY         0.00328  -0.00738   0.00000   0.00000   0.01053
  27        4ZZ        -0.01355   0.02586   0.00000   0.00000  -0.03326
  28        4XY         0.00000   0.00000   0.00000   0.00000   0.00000
  29        4XZ         0.00000   0.00000   0.04135   0.00000   0.00000
  30        4YZ         0.00000   0.00000   0.00000   0.04135   0.00000
                           6         7         8         9        10
   6        3S          0.76546
   7        3PX         0.00000   0.12406
   8        3PY         0.00000   0.00000   0.12406
   9        3PZ         0.19967   0.00000   0.00000   0.09723
  10        4XX         0.00167   0.00000   0.00000   0.00375   0.00039
  11        4YY         0.00167   0.00000   0.00000   0.00375   0.00039
  12        4ZZ        -0.02565   0.00000   0.00000  -0.01707  -0.00115
  13        4XY         0.00000   0.00000   0.00000   0.00000   0.00000
  14        4XZ         0.00000  -0.02376   0.00000   0.00000   0.00000
  15        4YZ         0.00000   0.00000  -0.02376   0.00000   0.00000
  16 2   N  1S          0.04924   0.00000   0.00000   0.01202   0.00328
  17        2S         -0.12857   0.00000   0.00000  -0.03289  -0.00738
  18        2PX         0.00000   0.21591   0.00000   0.00000   0.00000
  19        2PY         0.00000   0.00000   0.21591   0.00000   0.00000
  20        2PZ        -0.00701   0.00000   0.00000  -0.16573  -0.01053
  21        3S         -0.18735   0.00000   0.00000   0.04395  -0.00134
  22        3PX         0.00000   0.12406   0.00000   0.00000   0.00000
  23        3PY         0.00000   0.00000   0.12406   0.00000   0.00000
  24        3PZ        -0.04395   0.00000   0.00000  -0.07178  -0.00326
  25        4XX        -0.00134   0.00000   0.00000   0.00326   0.00035
  26        4YY        -0.00134   0.00000   0.00000   0.00326   0.00035
  27        4ZZ         0.00852   0.00000   0.00000  -0.01148  -0.00105
  28        4XY         0.00000   0.00000   0.00000   0.00000   0.00000
  29        4XZ         0.00000   0.02376   0.00000   0.00000   0.00000
  30        4YZ         0.00000   0.00000   0.02376   0.00000   0.00000
                          11        12        13        14        15
  11        4YY         0.00039
  12        4ZZ        -0.00115   0.00430
  13        4XY         0.00000   0.00000   0.00000
  14        4XZ         0.00000   0.00000   0.00000   0.00455
  15        4YZ         0.00000   0.00000   0.00000   0.00000   0.00455
  16 2   N  1S          0.00328  -0.01355   0.00000   0.00000   0.00000
  17        2S         -0.00738   0.02586   0.00000   0.00000   0.00000
  18        2PX         0.00000   0.00000   0.00000  -0.04135   0.00000
  19        2PY         0.00000   0.00000   0.00000   0.00000  -0.04135
  20        2PZ        -0.01053   0.03326   0.00000   0.00000   0.00000
  21        3S         -0.00134   0.00852   0.00000   0.00000   0.00000
  22        3PX         0.00000   0.00000   0.00000  -0.02376   0.00000
  23        3PY         0.00000   0.00000   0.00000   0.00000  -0.02376
  24        3PZ        -0.00326   0.01148   0.00000   0.00000   0.00000
  25        4XX         0.00035  -0.00105   0.00000   0.00000   0.00000
  26        4YY         0.00035  -0.00105   0.00000   0.00000   0.00000
  27        4ZZ        -0.00105   0.00307   0.00000   0.00000   0.00000
  28        4XY         0.00000   0.00000   0.00000   0.00000   0.00000
  29        4XZ         0.00000   0.00000   0.00000  -0.00455   0.00000
  30        4YZ         0.00000   0.00000   0.00000   0.00000  -0.00455
                          16        17        18        19        20
  16 2   N  1S          2.08042
  17        2S         -0.16874   0.47291
  18        2PX         0.00000   0.00000   0.37578
  19        2PY         0.00000   0.00000   0.00000   0.37578
  20        2PZ         0.05055  -0.09690   0.00000   0.00000   0.61545
  21        3S         -0.23971   0.52070   0.00000   0.00000  -0.43905
  22        3PX         0.00000   0.00000   0.21591   0.00000   0.00000
  23        3PY         0.00000   0.00000   0.00000   0.21591   0.00000
  24        3PZ         0.03355  -0.07327   0.00000   0.00000   0.23634
  25        4XX        -0.00490  -0.00551   0.00000   0.00000  -0.01192
  26        4YY        -0.00490  -0.00551   0.00000   0.00000  -0.01192
  27        4ZZ        -0.00519   0.00252   0.00000   0.00000   0.04875
  28        4XY         0.00000   0.00000   0.00000   0.00000   0.00000
  29        4XZ         0.00000   0.00000   0.04135   0.00000   0.00000
  30        4YZ         0.00000   0.00000   0.00000   0.04135   0.00000
                          21        22        23        24        25
  21        3S          0.76546
  22        3PX         0.00000   0.12406
  23        3PY         0.00000   0.00000   0.12406
  24        3PZ        -0.19967   0.00000   0.00000   0.09723
  25        4XX         0.00167   0.00000   0.00000  -0.00375   0.00039
  26        4YY         0.00167   0.00000   0.00000  -0.00375   0.00039
  27        4ZZ        -0.02565   0.00000   0.00000   0.01707  -0.00115
  28        4XY         0.00000   0.00000   0.00000   0.00000   0.00000
  29        4XZ         0.00000   0.02376   0.00000   0.00000   0.00000
  30        4YZ         0.00000   0.00000   0.02376   0.00000   0.00000
                          26        27        28        29        30
  26        4YY         0.00039
  27        4ZZ        -0.00115   0.00430
  28        4XY         0.00000   0.00000   0.00000
  29        4XZ         0.00000   0.00000   0.00000   0.00455
  30        4YZ         0.00000   0.00000   0.00000   0.00000   0.00455
    Full Mulliken population analysis:
                           1         2         3         4         5
   1 1   N  1S          2.08042
   2        2S         -0.03750   0.47291
   3        2PX         0.00000   0.00000   0.37578
   4        2PY         0.00000   0.00000   0.00000   0.37578
   5        2PZ         0.00000   0.00000   0.00000   0.00000   0.61545
   6        3S         -0.04120   0.40380   0.00000   0.00000   0.00000
   7        3PX         0.00000   0.00000   0.11212   0.00000   0.00000
   8        3PY         0.00000   0.00000   0.00000   0.11212   0.00000
   9        3PZ         0.00000   0.00000   0.00000   0.00000   0.12273
  10        4XX        -0.00025  -0.00351   0.00000   0.00000   0.00000
  11        4YY        -0.00025  -0.00351   0.00000   0.00000   0.00000
  12        4ZZ        -0.00026   0.00160   0.00000   0.00000   0.00000
  13        4XY         0.00000   0.00000   0.00000   0.00000   0.00000
  14        4XZ         0.00000   0.00000   0.00000   0.00000   0.00000
  15        4YZ         0.00000   0.00000   0.00000   0.00000   0.00000
  16 2   N  1S          0.00000  -0.00053   0.00000   0.00000  -0.00428
  17        2S         -0.00053   0.00652   0.00000   0.00000   0.05951
  18        2PX         0.00000   0.00000   0.04803   0.00000   0.00000
  19        2PY         0.00000   0.00000   0.00000   0.04803   0.00000
  20        2PZ        -0.00428   0.05951   0.00000   0.00000   0.14420
  21        3S          0.00350  -0.04937   0.00000   0.00000  -0.00167
  22        3PX         0.00000   0.00000   0.05393   0.00000   0.00000
  23        3PY         0.00000   0.00000   0.00000   0.05393   0.00000
  24        3PZ        -0.00158   0.01861   0.00000   0.00000   0.01912
  25        4XX         0.00001  -0.00090   0.00000   0.00000  -0.00164
  26        4YY         0.00001  -0.00090   0.00000   0.00000  -0.00164
  27        4ZZ        -0.00166   0.01221   0.00000   0.00000   0.01459
  28        4XY         0.00000   0.00000   0.00000   0.00000   0.00000
  29        4XZ         0.00000   0.00000   0.01208   0.00000   0.00000
  30        4YZ         0.00000   0.00000   0.00000   0.01208   0.00000
                           6         7         8         9        10
   6        3S          0.76546
   7        3PX         0.00000   0.12406
   8        3PY         0.00000   0.00000   0.12406
   9        3PZ         0.00000   0.00000   0.00000   0.09723
  10        4XX         0.00112   0.00000   0.00000   0.00000   0.00039
  11        4YY         0.00112   0.00000   0.00000   0.00000   0.00013
  12        4ZZ        -0.01719   0.00000   0.00000   0.00000  -0.00038
  13        4XY         0.00000   0.00000   0.00000   0.00000   0.00000
  14        4XZ         0.00000   0.00000   0.00000   0.00000   0.00000
  15        4YZ         0.00000   0.00000   0.00000   0.00000   0.00000
  16 2   N  1S          0.00350   0.00000   0.00000  -0.00158   0.00001
  17        2S         -0.04937   0.00000   0.00000   0.01861  -0.00090
  18        2PX         0.00000   0.05393   0.00000   0.00000   0.00000
  19        2PY         0.00000   0.00000   0.05393   0.00000   0.00000
  20        2PZ        -0.00167   0.00000   0.00000   0.01912  -0.00164
  21        3S         -0.11870   0.00000   0.00000  -0.02660  -0.00044
  22        3PX         0.00000   0.07860   0.00000   0.00000   0.00000
  23        3PY         0.00000   0.00000   0.07860   0.00000   0.00000
  24        3PZ        -0.02660   0.00000   0.00000  -0.00396  -0.00160
  25        4XX        -0.00044   0.00000   0.00000  -0.00160   0.00006
  26        4YY        -0.00044   0.00000   0.00000  -0.00160   0.00002
  27        4ZZ         0.00384   0.00000   0.00000   0.00481  -0.00028
  28        4XY         0.00000   0.00000   0.00000   0.00000   0.00000
  29        4XZ         0.00000   0.00537   0.00000   0.00000   0.00000
  30        4YZ         0.00000   0.00000   0.00537   0.00000   0.00000
                          11        12        13        14        15
  11        4YY         0.00039
  12        4ZZ        -0.00038   0.00430
  13        4XY         0.00000   0.00000   0.00000
  14        4XZ         0.00000   0.00000   0.00000   0.00455
  15        4YZ         0.00000   0.00000   0.00000   0.00000   0.00455
  16 2   N  1S          0.00001  -0.00166   0.00000   0.00000   0.00000
  17        2S         -0.00090   0.01221   0.00000   0.00000   0.00000
  18        2PX         0.00000   0.00000   0.00000   0.01208   0.00000
  19        2PY         0.00000   0.00000   0.00000   0.00000   0.01208
  20        2PZ        -0.00164   0.01459   0.00000   0.00000   0.00000
  21        3S         -0.00044   0.00384   0.00000   0.00000   0.00000
  22        3PX         0.00000   0.00000   0.00000   0.00537   0.00000
  23        3PY         0.00000   0.00000   0.00000   0.00000   0.00537
  24        3PZ        -0.00160   0.00481   0.00000   0.00000   0.00000
  25        4XX         0.00002  -0.00028   0.00000   0.00000   0.00000
  26        4YY         0.00006  -0.00028   0.00000   0.00000   0.00000
  27        4ZZ        -0.00028   0.00146   0.00000   0.00000   0.00000
  28        4XY         0.00000   0.00000   0.00000   0.00000   0.00000
  29        4XZ         0.00000   0.00000   0.00000   0.00199   0.00000
  30        4YZ         0.00000   0.00000   0.00000   0.00000   0.00199
                          16        17        18        19        20
  16 2   N  1S          2.08042
  17        2S         -0.03750   0.47291
  18        2PX         0.00000   0.00000   0.37578
  19        2PY         0.00000   0.00000   0.00000   0.37578
  20        2PZ         0.00000   0.00000   0.00000   0.00000   0.61545
  21        3S         -0.04120   0.40380   0.00000   0.00000   0.00000
  22        3PX         0.00000   0.00000   0.11212   0.00000   0.00000
  23        3PY         0.00000   0.00000   0.00000   0.11212   0.00000
  24        3PZ         0.00000   0.00000   0.00000   0.00000   0.12273
  25        4XX        -0.00025  -0.00351   0.00000   0.00000   0.00000
  26        4YY        -0.00025  -0.00351   0.00000   0.00000   0.00000
  27        4ZZ        -0.00026   0.00160   0.00000   0.00000   0.00000
  28        4XY         0.00000   0.00000   0.00000   0.00000   0.00000
  29        4XZ         0.00000   0.00000   0.00000   0.00000   0.00000
  30        4YZ         0.00000   0.00000   0.00000   0.00000   0.00000
                          21        22        23        24        25
  21        3S          0.76546
  22        3PX         0.00000   0.12406
  23        3PY         0.00000   0.00000   0.12406
  24        3PZ         0.00000   0.00000   0.00000   0.09723
  25        4XX         0.00112   0.00000   0.00000   0.00000   0.00039
  26        4YY         0.00112   0.00000   0.00000   0.00000   0.00013
  27        4ZZ        -0.01719   0.00000   0.00000   0.00000  -0.00038
  28        4XY         0.00000   0.00000   0.00000   0.00000   0.00000
  29        4XZ         0.00000   0.00000   0.00000   0.00000   0.00000
  30        4YZ         0.00000   0.00000   0.00000   0.00000   0.00000
                          26        27        28        29        30
  26        4YY         0.00039
  27        4ZZ        -0.00038   0.00430
  28        4XY         0.00000   0.00000   0.00000
  29        4XZ         0.00000   0.00000   0.00000   0.00455
  30        4YZ         0.00000   0.00000   0.00000   0.00000   0.00455
     Gross orbital populations:
                           1
   1 1   N  1S          1.99643
   2        2S          0.87896
   3        2PX         0.60194
   4        2PY         0.60194
   5        2PZ         0.96636
   6        3S          0.92324
   7        3PX         0.37408
   8        3PY         0.37408
   9        3PZ         0.22715
  10        4XX        -0.00727
  11        4YY        -0.00727
  12        4ZZ         0.02239
  13        4XY         0.00000
  14        4XZ         0.02398
  15        4YZ         0.02398
  16 2   N  1S          1.99643
  17        2S          0.87896
  18        2PX         0.60194
  19        2PY         0.60194
  20        2PZ         0.96636
  21        3S          0.92324
  22        3PX         0.37408
  23        3PY         0.37408
  24        3PZ         0.22715
  25        4XX        -0.00727
  26        4YY        -0.00727
  27        4ZZ         0.02239
  28        4XY         0.00000
  29        4XZ         0.02398
  30        4YZ         0.02398
          Condensed to atoms (all electrons):
               1          2
     1  N    6.345985   0.654015
     2  N    0.654015   6.345985
 Mulliken charges:
               1
     1  N    0.000000
     2  N    0.000000
 Sum of Mulliken charges =   0.00000
 Mulliken charges with hydrogens summed into heavy atoms:
               1
     1  N    0.000000
     2  N    0.000000
 Atomic Valencies and Mayer Atomic Bond Orders:
               1          2
     1  N    2.800367   2.800367
     2  N    2.800367   2.800367
 Lowdin Atomic Charges:
               1
     1  N    0.000000
     2  N    0.000000
 Sum of Lowdin charges  =   0.00000
 Lowdin atomic charges with hydrogens summed into heavy atoms:
               1
     1  N    0.000000
     2  N    0.000000
 Sum of Lowdin charges  =   0.00000
 Dipole moment from Lowdin charges (Debye):
    X=     0.0000    Y=     0.0000    Z=     0.0000  Tot=     0.0000
 Electronic spatial extent (au):  <R**2>=             39.0094
 Charge=              0.0000 electrons
 Dipole moment (field-independent basis, Debye):
    X=              0.0000    Y=              0.0000    Z=              0.0000  Tot=              0.0000
 Quadrupole moment (field-independent basis, Debye-Ang):
   XX=            -10.2536   YY=            -10.2536   ZZ=            -11.6941
   XY=              0.0000   XZ=              0.0000   YZ=              0.0000
 Traceless Quadrupole moment (field-independent basis, Debye-Ang):
   XX=              0.4801   YY=              0.4801   ZZ=             -0.9603
   XY=              0.0000   XZ=              0.0000   YZ=              0.0000
 Octapole moment (field-independent basis, Debye-Ang**2):
  XXX=              0.0000  YYY=              0.0000  ZZZ=              0.0000  XYY=              0.0000
  XXY=              0.0000  XXZ=              0.0000  XZZ=              0.0000  YZZ=              0.0000
  YYZ=              0.0000  XYZ=              0.0000
 Hexadecapole moment (field-independent basis, Debye-Ang**3):
 XXXX=             -8.3638 YYYY=             -8.3638 ZZZZ=            -30.7810 XXXY=              0.0000
 XXXZ=              0.0000 YYYX=              0.0000 YYYZ=              0.0000 ZZZX=              0.0000
 ZZZY=              0.0000 XXYY=             -2.7879 XXZZ=             -6.1200 YYZZ=             -6.1200
 XXYZ=              0.0000 YYXZ=              0.0000 ZZXY=              0.0000
 N-N= 2.361537633963D+01 E-N=-3.025697669710D+02  KE= 1.084403919315D+02
 Symmetry AG   KE= 5.318766297528D+01
 Symmetry B1G  KE= 1.378059742321D-34
 Symmetry B2G  KE= 1.089679719368D-32
 Symmetry B3G  KE= 3.077636831361D-32
 Symmetry AU   KE= 5.231380868285D-34
 Symmetry B1U  KE= 4.878786518791D+01
 Symmetry B2U  KE= 3.232431884143D+00
 Symmetry B3U  KE= 3.232431884143D+00
 Orbital energies and kinetic energies (alpha):
                                 1                 2
   1 (SGG)--O                -15.696732         22.070226
   2 (SGU)--O                -15.693328         22.108134
   3 (SGG)--O                 -1.473604          2.512937
   4 (SGU)--O                 -0.776379          2.285799
   5 (SGG)--O                 -0.630011          2.010669
   6 (PIU)--O                 -0.611628          1.616216
   7 (PIU)--O                 -0.611628          1.616216
   8 (PIG)--V                  0.170260          1.753577
   9 (PIG)--V                  0.170260          1.753577
  10 (SGU)--V                  0.585190          1.412148
  11 (SGG)--V                  0.774364          1.450284
  12 (PIU)--V                  0.836601          2.382540
  13 (PIU)--V                  0.836601          2.382540
  14 (SGG)--V                  0.838008          2.044904
  15 (PIG)--V                  1.014741          2.984179
  16 (PIG)--V                  1.014741          2.984179
  17 (SGU)--V                  1.069845          3.193054
  18 (SGU)--V                  1.490007          3.165395
  19 (DLTG)--V                 1.717831          2.591143
  20 (DLTG)--V                 1.717831          2.591143
  21 (PIU)--V                  1.853192          3.040980
  22 (PIU)--V                  1.853192          3.040980
  23 (DLTU)--V                 2.258955          3.099736
  24 (DLTU)--V                 2.258955          3.099736
  25 (SGG)--V                  2.733664          4.125959
  26 (PIG)--V                  2.943614          3.965170
  27 (PIG)--V                  2.943614          3.965170
  28 (SGU)--V                  3.229520          6.134394
  29 (SGG)--V                  3.679754          8.459290
  30 (SGU)--V                  3.989653          9.682191
 Total kinetic energy from orbitals= 1.084403919315D+02
 No NMR shielding tensors so no spin-rotation constants.
 Leave Link  601 at Wed Mar 25 13:19:55 2026, MaxMem=    33554432 cpu:         0.0
 (Enter /opt/g09/g09/l701.exe)
 Compute integral first derivatives.
 ... and contract with generalized density number  2.
 Leave Link  701 at Wed Mar 25 13:19:55 2026, MaxMem=    33554432 cpu:         0.0
 (Enter /opt/g09/g09/l702.exe)
 L702 exits ... SP integral derivatives will be done elsewhere.
 Leave Link  702 at Wed Mar 25 13:19:55 2026, MaxMem=    33554432 cpu:         0.0
 (Enter /opt/g09/g09/l703.exe)
 Compute integral first derivatives, UseDBF=F ICtDFT=           0.
 Integral derivatives from FoFJK, PRISM(SPDF).
 Calling FoFJK, ICntrl=  10002127 FMM=F ISym2X=1 I1Cent= 0 IOpClX= 0 NMat=1 NMatS=1 NMatT=0.
 FoFJK:  IHMeth= 1 ICntrl=10002127 DoSepK=F KAlg= 0 I1Cent=   0 FoldK=F
 IRaf=         0 NMat=   1 IRICut=       1 DoRegI=T DoRafI=F ISym2E= 1.
 FoFCou: FMM=F IPFlag=           0 FMFlag=      100000 FMFlg1=         800
         NFxFlg=           0 DoJE=F BraDBF=F KetDBF=F FulRan=T
         wScrn=  0.000000 ICntrl=10002127 IOpCl=  0 I1Cent=           0 NGrid=           0
         NMat0=    1 NMatS0=      1 NMatT0=    0 NMatD0=    1 NMtDS0=    0 NMtDT0=    0
 Petite list used in FoFCou.
 Leave Link  703 at Wed Mar 25 13:19:55 2026, MaxMem=    33554432 cpu:         0.0
 (Enter /opt/g09/g09/l716.exe)
 Dipole        =-1.18329136D-30 0.00000000D+00 0.00000000D+00
 ***** Axes restored to original set *****
 -------------------------------------------------------------------
 Center     Atomic                   Forces (Hartrees/Bohr)
 Number     Number              X              Y              Z
 -------------------------------------------------------------------
      1        7           0.000000000    0.000000000   -0.088675661
      2        7           0.000000000    0.000000000    0.088675661
 -------------------------------------------------------------------
 Cartesian Forces:  Max     0.088675661 RMS     0.051196917
 Leave Link  716 at Wed Mar 25 13:19:55 2026, MaxMem=    33554432 cpu:         0.0
 (Enter /opt/g09/g09/l103.exe)

 GradGradGradGradGradGradGradGradGradGradGradGradGradGradGradGradGradGrad
 Berny optimization.
 FormGI is forming the generalized inverse of G from B-inverse, IUseBI=4.
 Internal  Forces:  Max     0.088675661 RMS     0.088675661
 Search for a local minimum.
 Step number   1 out of a maximum of   20
 All quantities printed in internal units (Hartrees-Bohrs-Radians)
 RMS Force = .88676D-01 SwitMx=.10000D-02 MixMth= 1
 Mixed Optimization -- RFO/linear search
 Second derivative matrix not updated -- first step.
 The second derivative matrix:
                          R1
           R1           1.78752
 ITU=  0
     Eigenvalues ---    1.78752
 RFO step:  Lambda=-4.38827945D-03 EMin= 1.78751513D+00
 Linear search not attempted -- first point.
 Iteration  1 RMS(Cart)=  0.03499249 RMS(Int)=  0.00000000
 Iteration  2 RMS(Cart)=  0.00000000 RMS(Int)=  0.00000000
 ITry= 1 IFail=0 DXMaxC= 2.47D-02 DCOld= 1.00D+10 DXMaxT= 3.00D-01 DXLimC= 3.00D+00 Rises=F
 ClnCor:  largest displacement from symmetrization is 1.52D-18 for atom     1.
 Variable       Old X    -DE/DX   Delta X   Delta X   Delta X     New X
                                 (Linear)    (Quad)   (Total)
    R1        2.07492   0.08868   0.00000   0.04949   0.04949   2.12441
         Item               Value     Threshold  Converged?
 Maximum Force            0.088676     0.000450     NO 
 RMS     Force            0.088676     0.000300     NO 
 Maximum Displacement     0.024743     0.001800     NO 
 RMS     Displacement     0.034992     0.001200     NO 
 Predicted change in Energy=-2.199513D-03
 Lowest energy point so far.  Saving SCF results.
 GradGradGradGradGradGradGradGradGradGradGradGradGradGradGradGradGradGrad

 Leave Link  103 at Wed Mar 25 13:19:55 2026, MaxMem=    33554432 cpu:         0.0
 (Enter /opt/g09/g09/l202.exe)
                          Input orientation:                          
 ---------------------------------------------------------------------
 Center     Atomic      Atomic             Coordinates (Angstroms)
 Number     Number       Type             X           Y           Z
 ---------------------------------------------------------------------
      1          7           0        0.000000    0.000000   -0.013094
      2          7           0        0.000000    0.000000    1.111094
 ---------------------------------------------------------------------
 Stoichiometry    N2
 Framework group  D*H[C*(N.N)]
 Deg. of freedom     1
 Full point group                 D*H     NOp   8
 RotChk:  IX=0 Diff= 0.00D+00
 Largest Abelian subgroup         D2H     NOp   8
 Largest concise Abelian subgroup C2      NOp   2
                         Standard orientation:                         
 ---------------------------------------------------------------------
 Center     Atomic      Atomic             Coordinates (Angstroms)
 Number     Number       Type             X           Y           Z
 ---------------------------------------------------------------------
      1          7           0        0.000000    0.000000    0.562094
      2          7           0        0.000000    0.000000   -0.562094
 ---------------------------------------------------------------------
 Rotational constants (GHZ):      0.0000000     57.1145089     57.1145089
 Leave Link  202 at Wed Mar 25 13:19:55 2026, MaxMem=    33554432 cpu:         0.0
 (Enter /opt/g09/g09/l301.exe)
 Standard basis: 6-31G(d) (6D, 7F)
 Ernie: Thresh=  0.10000D-02 Tol=  0.10000D-05 Strict=F.
 There are     8 symmetry adapted cartesian basis functions of AG  symmetry.
 There are     1 symmetry adapted cartesian basis functions of B1G symmetry.
 There are     3 symmetry adapted cartesian basis functions of B2G symmetry.
 There are     3 symmetry adapted cartesian basis functions of B3G symmetry.
 There are     1 symmetry adapted cartesian basis functions of AU  symmetry.
 There are     8 symmetry adapted cartesian basis functions of B1U symmetry.
 There are     3 symmetry adapted cartesian basis functions of B2U symmetry.
 There are     3 symmetry adapted cartesian basis functions of B3U symmetry.
 There are     8 symmetry adapted basis functions of AG  symmetry.
 There are     1 symmetry adapted basis functions of B1G symmetry.
 There are     3 symmetry adapted basis functions of B2G symmetry.
 There are     3 symmetry adapted basis functions of B3G symmetry.
 There are     1 symmetry adapted basis functions of AU  symmetry.
 There are     8 symmetry adapted basis functions of B1U symmetry.
 There are     3 symmetry adapted basis functions of B2U symmetry.
 There are     3 symmetry adapted basis functions of B3U symmetry.
    30 basis functions,    56 primitive gaussians,    30 cartesian basis functions
     7 alpha electrons        7 beta electrons
       nuclear repulsion energy        23.0652693518 Hartrees.
 IExCor=    0 DFT=F Ex=HF Corr=None ExCW=0 ScaHFX=  1.000000
 ScaDFX=  1.000000  1.000000  1.000000  1.000000 ScalE2=  1.000000  1.000000
 IRadAn=      0 IRanWt=     -1 IRanGd=            0 ICorTp=0 IEmpDi=  4
 NAtoms=    2 NActive=    2 NUniq=    1 SFac= 4.00D+00 NAtFMM=   60 NAOKFM=F Big=F
 Integral buffers will be    131072 words long.
 Raffenetti 1 integral format.
 Two-electron integral symmetry is turned on.
 Leave Link  301 at Wed Mar 25 13:19:55 2026, MaxMem=    33554432 cpu:         0.0
 (Enter /opt/g09/g09/l302.exe)
 NPDir=0 NMtPBC=     1 NCelOv=     1 NCel=       1 NClECP=     1 NCelD=      1
         NCelK=      1 NCelE2=     1 NClLst=     1 CellRange=     0.0.
 One-electron integrals computed using PRISM.
 One-electron integral symmetry used in STVInt
 NBasis=    30 RedAO= T EigKep=  6.86D-03  NBF=     8     1     3     3     1     8     3     3
 NBsUse=    30 1.00D-06 EigRej= -1.00D+00 NBFU=     8     1     3     3     1     8     3     3
 Leave Link  302 at Wed Mar 25 13:19:56 2026, MaxMem=    33554432 cpu:         0.0
 (Enter /opt/g09/g09/l303.exe)
 DipDrv:  MaxL=1.
 Leave Link  303 at Wed Mar 25 13:19:56 2026, MaxMem=    33554432 cpu:         0.0
 (Enter /opt/g09/g09/l401.exe)
 Initial guess from the checkpoint file:  "n2_MP2.chk"
 B after Tr=     0.000000    0.000000    0.000000
         Rot=    1.000000    0.000000    0.000000    0.000000 Ang=   0.00 deg.
 Guess basis will be translated and rotated to current coordinates.
 JPrj=2 DoOrth=T DoCkMO=T.
 Initial guess orbital symmetries:
       Occupied  (SGG) (SGU) (SGG) (SGU) (SGG) (PIU) (PIU)
       Virtual   (SGG) (SGG) (SGG) (SGG) (DLTG) (DLTG) (PIG) (PIG)
                 (PIG) (PIG) (PIG) (PIG) (DLTU) (SGU) (SGU) (DLTU)
                 (SGU) (SGU) (SGU) (PIU) (PIU) (PIU) (PIU)
 The electronic state of the initial guess is 1-SGG.
 Generating alternative initial guess.
 ExpMin= 2.12D-01 ExpMax= 4.17D+03 ExpMxC= 6.27D+02 IAcc=1 IRadAn=         1 AccDes= 0.00D+00
 Harris functional with IExCor=  205 and IRadAn=       1 diagonalized for initial guess.
 HarFok:  IExCor=  205 AccDes= 0.00D+00 IRadAn=         1 IDoV= 1 UseB2=F ITyADJ=14
 ICtDFT=  3500011 ScaDFX=  1.000000  1.000000  1.000000  1.000000
 FoFCou: FMM=F IPFlag=           0 FMFlag=      100000 FMFlg1=           0
         NFxFlg=           0 DoJE=T BraDBF=F KetDBF=T FulRan=T
         wScrn=  0.000000 ICntrl=     500 IOpCl=  0 I1Cent=   200000004 NGrid=           0
         NMat0=    1 NMatS0=      1 NMatT0=    0 NMatD0=    1 NMtDS0=    0 NMtDT0=    0
 Petite list used in FoFCou.
 Harris En= -108.904538181955    
 Leave Link  401 at Wed Mar 25 13:19:56 2026, MaxMem=    33554432 cpu:         0.1
 (Enter /opt/g09/g09/l502.exe)
 Closed shell SCF:
 Using DIIS extrapolation, IDIIS=  1040.
 Integral symmetry usage will be decided dynamically.
 Keep R1 ints in memory in symmetry-blocked form, NReq=959811.
 IVT=       21766 IEndB=       21766 NGot=    33554432 MDV=    33514620
 LenX=    33514620 LenY=    33513279
 Requested convergence on RMS density matrix=1.00D-08 within 128 cycles.
 Requested convergence on MAX density matrix=1.00D-06.
 Requested convergence on             energy=1.00D-06.
 No special actions if energy rises.
 FoFCou: FMM=F IPFlag=           0 FMFlag=           0 FMFlg1=           0
         NFxFlg=           0 DoJE=F BraDBF=F KetDBF=F FulRan=T
         wScrn=  0.000000 ICntrl=     600 IOpCl=  0 I1Cent=           0 NGrid=           0
         NMat0=    1 NMatS0=    465 NMatT0=    0 NMatD0=    1 NMtDS0=    0 NMtDT0=    0
 Petite list used in FoFCou.

 Cycle   1  Pass 1  IDiag  1:
 E= -108.936587700051    
 DIIS: error= 4.30D-03 at cycle   1 NSaved=   1.
 NSaved= 1 IEnMin= 1 EnMin= -108.936587700051     IErMin= 1 ErrMin= 4.30D-03
 ErrMax= 4.30D-03  0.00D+00 EMaxC= 1.00D-01 BMatC= 4.59D-04 BMatP= 4.59D-04
 IDIUse=3 WtCom= 9.57D-01 WtEn= 4.30D-02
 Coeff-Com:  0.100D+01
 Coeff-En:   0.100D+01
 Coeff:      0.100D+01
 Gap=     0.987 Goal=   None    Shift=    0.000
 GapD=    0.987 DampG=2.000 DampE=1.000 DampFc=2.0000 IDamp=-1.
 RMSDP=6.46D-04 MaxDP=3.77D-03              OVMax= 3.89D-03

 Cycle   2  Pass 1  IDiag  1:
 E= -108.937092254141     Delta-E=       -0.000504554090 Rises=F Damp=F
 DIIS: error= 1.29D-03 at cycle   2 NSaved=   2.
 NSaved= 2 IEnMin= 2 EnMin= -108.937092254141     IErMin= 2 ErrMin= 1.29D-03
 ErrMax= 1.29D-03  0.00D+00 EMaxC= 1.00D-01 BMatC= 3.27D-05 BMatP= 4.59D-04
 IDIUse=3 WtCom= 9.87D-01 WtEn= 1.29D-02
 Coeff-Com:  0.603D-01 0.940D+00
 Coeff-En:   0.000D+00 0.100D+01
 Coeff:      0.595D-01 0.940D+00
 Gap=     0.758 Goal=   None    Shift=    0.000
 RMSDP=2.24D-04 MaxDP=1.95D-03 DE=-5.05D-04 OVMax= 2.20D-03

 Cycle   3  Pass 1  IDiag  1:
 E= -108.937123720925     Delta-E=       -0.000031466784 Rises=F Damp=F
 DIIS: error= 2.50D-04 at cycle   3 NSaved=   3.
 NSaved= 3 IEnMin= 3 EnMin= -108.937123720925     IErMin= 3 ErrMin= 2.50D-04
 ErrMax= 2.50D-04  0.00D+00 EMaxC= 1.00D-01 BMatC= 1.65D-06 BMatP= 3.27D-05
 IDIUse=3 WtCom= 9.98D-01 WtEn= 2.50D-03
 Coeff-Com: -0.592D-01-0.818D-01 0.114D+01
 Coeff-En:   0.000D+00 0.000D+00 0.100D+01
 Coeff:     -0.591D-01-0.816D-01 0.114D+01
 Gap=     0.757 Goal=   None    Shift=    0.000
 RMSDP=7.97D-05 MaxDP=7.02D-04 DE=-3.15D-05 OVMax= 6.20D-04

 Cycle   4  Pass 1  IDiag  1:
 E= -108.937126270427     Delta-E=       -0.000002549502 Rises=F Damp=F
 DIIS: error= 1.83D-05 at cycle   4 NSaved=   4.
 NSaved= 4 IEnMin= 4 EnMin= -108.937126270427     IErMin= 4 ErrMin= 1.83D-05
 ErrMax= 1.83D-05  0.00D+00 EMaxC= 1.00D-01 BMatC= 7.57D-09 BMatP= 1.65D-06
 IDIUse=1 WtCom= 1.00D+00 WtEn= 0.00D+00
 Coeff-Com:  0.809D-02 0.357D-02-0.169D+00 0.116D+01
 Coeff:      0.809D-02 0.357D-02-0.169D+00 0.116D+01
 Gap=     0.757 Goal=   None    Shift=    0.000
 RMSDP=1.26D-05 MaxDP=1.56D-04 DE=-2.55D-06 OVMax= 5.17D-05

 Cycle   5  Pass 1  IDiag  1:
 E= -108.937126283147     Delta-E=       -0.000000012720 Rises=F Damp=F
 DIIS: error= 2.46D-06 at cycle   5 NSaved=   5.
 NSaved= 5 IEnMin= 5 EnMin= -108.937126283147     IErMin= 5 ErrMin= 2.46D-06
 ErrMax= 2.46D-06  0.00D+00 EMaxC= 1.00D-01 BMatC= 8.82D-11 BMatP= 7.57D-09
 IDIUse=1 WtCom= 1.00D+00 WtEn= 0.00D+00
 Coeff-Com: -0.142D-02-0.545D-03 0.314D-01-0.269D+00 0.124D+01
 Coeff:     -0.142D-02-0.545D-03 0.314D-01-0.269D+00 0.124D+01
 Gap=     0.757 Goal=   None    Shift=    0.000
 RMSDP=1.13D-06 MaxDP=1.32D-05 DE=-1.27D-08 OVMax= 4.79D-06

 Cycle   6  Pass 1  IDiag  1:
 E= -108.937126283295     Delta-E=       -0.000000000148 Rises=F Damp=F
 DIIS: error= 3.65D-07 at cycle   6 NSaved=   6.
 NSaved= 6 IEnMin= 6 EnMin= -108.937126283295     IErMin= 6 ErrMin= 3.65D-07
 ErrMax= 3.65D-07  0.00D+00 EMaxC= 1.00D-01 BMatC= 1.24D-12 BMatP= 8.82D-11
 IDIUse=1 WtCom= 1.00D+00 WtEn= 0.00D+00
 Coeff-Com:  0.271D-03 0.113D-03-0.599D-02 0.537D-01-0.315D+00 0.127D+01
 Coeff:      0.271D-03 0.113D-03-0.599D-02 0.537D-01-0.315D+00 0.127D+01
 Gap=     0.757 Goal=   None    Shift=    0.000
 RMSDP=6.12D-08 MaxDP=4.44D-07 DE=-1.48D-10 OVMax= 8.29D-07

 Cycle   7  Pass 1  IDiag  1:
 E= -108.937126283297     Delta-E=       -0.000000000002 Rises=F Damp=F
 DIIS: error= 1.15D-08 at cycle   7 NSaved=   7.
 NSaved= 7 IEnMin= 7 EnMin= -108.937126283297     IErMin= 7 ErrMin= 1.15D-08
 ErrMax= 1.15D-08  0.00D+00 EMaxC= 1.00D-01 BMatC= 2.49D-15 BMatP= 1.24D-12
 IDIUse=1 WtCom= 1.00D+00 WtEn= 0.00D+00
 Coeff-Com: -0.899D-05-0.420D-05 0.196D-03-0.166D-02 0.109D-01-0.793D-01
 Coeff-Com:  0.107D+01
 Coeff:     -0.899D-05-0.420D-05 0.196D-03-0.166D-02 0.109D-01-0.793D-01
 Coeff:      0.107D+01
 Gap=     0.757 Goal=   None    Shift=    0.000
 RMSDP=3.46D-09 MaxDP=3.96D-08 DE=-2.05D-12 OVMax= 3.08D-08

 SCF Done:  E(RHF) =  -108.937126283     A.U. after    7 cycles
            NFock=  7  Conv=0.35D-08     -V/T= 2.0061
 KE= 1.082762446019D+02 PE=-3.013307620332D+02 EE= 6.105212179630D+01
 Leave Link  502 at Wed Mar 25 13:19:56 2026, MaxMem=    33554432 cpu:         0.0
 (Enter /opt/g09/g09/l801.exe)
 ExpMin= 2.12D-01 ExpMax= 4.17D+03 ExpMxC= 6.27D+02 IAcc=3 IRadAn=         5 AccDes= 0.00D+00
 HarFok:  IExCor=  205 AccDes= 0.00D+00 IRadAn=         5 IDoV=-2 UseB2=F ITyADJ=14
 ICtDFT= 12500011 ScaDFX=  1.000000  1.000000  1.000000  1.000000
 Largest valence mixing into a core orbital is  1.81D-04
 Largest core mixing into a valence orbital is  4.71D-05
 Range of M.O.s used for correlation:     3    30
 NBasis=    30 NAE=     7 NBE=     7 NFC=     2 NFV=     0
 NROrb=     28 NOA=     5 NOB=     5 NVA=    23 NVB=    23
 Leave Link  801 at Wed Mar 25 13:19:56 2026, MaxMem=    33554432 cpu:         0.0
 (Enter /opt/g09/g09/l906.exe)
 Frozen-core derivative calculation, NFC=   2 NFV=   0.
 FulOut=F Deriv=T AODrv=T NAtomX=     2
   MMem=        3801  MDisk=           5 MDiskD=           5
  W3Min=        6300 MinDsk=       64175 NBas6D=          30
 NBas2D=         519    NTT=         465    LW2=     2040000
    MDV=    33538775 MDiskM=       14601 NBas2p=         294
 Fully direct method using O(ONN) memory.
 IMap=   1   2   3   4   5   6   7
 JobTyp=1 Pass  1:  I=   3 to   7 NPSUse=  1 ParTrn=F ParDer=F DoDerP=T.
 Spin components of T(2) and E(2):
     alpha-alpha T2 =       0.1529988474D-01 E2=     -0.4252860724D-01
     alpha-beta  T2 =       0.8371994309D-01 E2=     -0.2329968065D+00
     beta-beta   T2 =       0.1529988474D-01 E2=     -0.4252860724D-01
 The integrals were generated   1 times.
 ANorm=    0.1055613430D+01
 E2 =    -0.3180540210D+00 EUMP2 =    -0.10925518030433D+03
 Leave Link  906 at Wed Mar 25 13:19:56 2026, MaxMem=    33554432 cpu:         0.1
 (Enter /opt/g09/g09/l1002.exe)
 Minotr:  Closed shell wavefunction.
          Computing MP2/KS-MP2 derivatives.
          Using Z-Vector for PSCF gradient.
          Skipping F1 and S1 gradient terms here.
          IDoAtm=11
          Frozen-core window.
          Direct CPHF calculation.
          Differentiating once with respect to electric field.
                with respect to dipole field.
          Differentiating once with respect to nuclear coordinates.
          Using symmetry in CPHF.
          Requested convergence is 1.0D-10 RMS, and 1.0D-09 maximum.
          NewPWx=F KeepS1=T KeepF1=T KeepIn=T MapXYZ=F SortEE=F KeepMc=T.
          MDV=      33554380 using IRadAn=       0.
 Keep R1 ints in memory in symmetry-blocked form, NReq=942691.
 FoFCou: FMM=F IPFlag=           0 FMFlag=           0 FMFlg1=           0
         NFxFlg=           0 DoJE=F BraDBF=F KetDBF=F FulRan=T
         wScrn=  0.000000 ICntrl=     600 IOpCl=  0 I1Cent=           0 NGrid=           0
         NMat0=    1 NMatS0=    465 NMatT0=    0 NMatD0=    1 NMtDS0=    0 NMtDT0=    0
 Petite list used in FoFCou.
          Solving linear equations separately, MaxMat=       0.
          There are     1 degrees of freedom in the 1st order CPHF.  IDoFFX=0 NUNeed=     1.
 LinEq1:  Iter=  0 NonCon=     1 RMS=1.12D-02 Max=7.43D-02 NDo=     1
 AX will form     1 AO Fock derivatives at one time.
 LinEq1:  Iter=  1 NonCon=     1 RMS=2.32D-03 Max=2.10D-02 NDo=     1
 LinEq1:  Iter=  2 NonCon=     1 RMS=2.81D-04 Max=1.68D-03 NDo=     1
 LinEq1:  Iter=  3 NonCon=     1 RMS=3.66D-05 Max=2.85D-04 NDo=     1
 LinEq1:  Iter=  4 NonCon=     1 RMS=2.28D-06 Max=1.25D-05 NDo=     1
 LinEq1:  Iter=  5 NonCon=     1 RMS=2.00D-07 Max=1.03D-06 NDo=     1
 LinEq1:  Iter=  6 NonCon=     1 RMS=7.37D-09 Max=4.76D-08 NDo=     1
 LinEq1:  Iter=  7 NonCon=     1 RMS=5.18D-10 Max=3.34D-09 NDo=     1
 LinEq1:  Iter=  8 NonCon=     0 RMS=4.37D-11 Max=2.41D-10 NDo=     1
 Linear equations converged to 1.000D-10 1.000D-09 after     8 iterations.
 End of Minotr F.D. properties file   721 does not exist.
 End of Minotr F.D. properties file   722 does not exist.
 End of Minotr F.D. properties file   788 does not exist.
 Leave Link 1002 at Wed Mar 25 13:19:56 2026, MaxMem=    33554432 cpu:         0.0
 (Enter /opt/g09/g09/l701.exe)
 Compute integral first derivatives.
 ... and contract with generalized density number  2.
 Leave Link  701 at Wed Mar 25 13:19:56 2026, MaxMem=    33554432 cpu:         0.0
 (Enter /opt/g09/g09/l702.exe)
 L702 exits ... SP integral derivatives will be done elsewhere.
 Leave Link  702 at Wed Mar 25 13:19:56 2026, MaxMem=    33554432 cpu:         0.0
 (Enter /opt/g09/g09/l703.exe)
 Compute integral first derivatives, UseDBF=F ICtDFT=           0.
 Integral derivatives from FoFJK, PRISM(SPDF).
 Calling FoFJK, ICntrl=  10002127 FMM=F ISym2X=1 I1Cent= 0 IOpClX= 0 NMat=1 NMatS=1 NMatT=0.
 FoFJK:  IHMeth= 1 ICntrl=10002127 DoSepK=F KAlg= 0 I1Cent=   0 FoldK=F
 IRaf=         0 NMat=   1 IRICut=       1 DoRegI=T DoRafI=F ISym2E= 1.
 FoFCou: FMM=F IPFlag=           0 FMFlag=      100000 FMFlg1=         800
         NFxFlg=           0 DoJE=F BraDBF=F KetDBF=F FulRan=T
         wScrn=  0.000000 ICntrl=10002127 IOpCl=  0 I1Cent=           0 NGrid=           0
         NMat0=    1 NMatS0=      1 NMatT0=    0 NMatD0=    1 NMtDS0=    0 NMtDT0=    0
 Petite list used in FoFCou.
 Leave Link  703 at Wed Mar 25 13:19:56 2026, MaxMem=    33554432 cpu:         0.0
 (Enter /opt/g09/g09/l716.exe)
 Dipole        = 7.88860905D-31 0.00000000D+00-8.88178420D-16
 ***** Axes restored to original set *****
 -------------------------------------------------------------------
 Center     Atomic                   Forces (Hartrees/Bohr)
 Number     Number              X              Y              Z
 -------------------------------------------------------------------
      1        7           0.000000000    0.000000000   -0.015901362
      2        7           0.000000000    0.000000000    0.015901362
 -------------------------------------------------------------------
 Cartesian Forces:  Max     0.015901362 RMS     0.009180656
 Leave Link  716 at Wed Mar 25 13:19:56 2026, MaxMem=    33554432 cpu:         0.0
 (Enter /opt/g09/g09/l103.exe)

 GradGradGradGradGradGradGradGradGradGradGradGradGradGradGradGradGradGrad
 Berny optimization.
 Using GEDIIS/GDIIS optimizer.
 Red2BG is reusing G-inverse.
 Internal  Forces:  Max     0.015901362 RMS     0.015901362
 Search for a local minimum.
 Step number   2 out of a maximum of   20
 All quantities printed in internal units (Hartrees-Bohrs-Radians)
 RMS Force = .15901D-01 SwitMx=.10000D-02 MixMth= 1
 Mixed Optimization -- RFO/linear search
 Update second derivatives using D2CorX and points    1    2
[...]
  20        2PZ        -0.07980   0.19011   0.00000   0.00000  -0.42000
  21        3S          0.04811  -0.12700   0.00000   0.00000   0.00938
  22        3PX         0.00000   0.00000   0.22089   0.00000   0.00000
  23        3PY         0.00000   0.00000   0.00000   0.22089   0.00000
  24        3PZ        -0.01079   0.03170   0.00000   0.00000  -0.17238
  25        4XX         0.00302  -0.00691   0.00000   0.00000   0.00971
  26        4YY         0.00302  -0.00691   0.00000   0.00000   0.00971
  27        4ZZ        -0.01332   0.02593   0.00000   0.00000  -0.03309
  28        4XY         0.00000   0.00000   0.00000   0.00000   0.00000
  29        4XZ         0.00000   0.00000   0.04037   0.00000   0.00000
  30        4YZ         0.00000   0.00000   0.00000   0.04037   0.00000
                           6         7         8         9        10
   6        3S          0.75692
   7        3PX         0.00000   0.13130
   8        3PY         0.00000   0.00000   0.13130
   9        3PZ         0.19495   0.00000   0.00000   0.09971
  10        4XX         0.00100   0.00000   0.00000   0.00350   0.00034
  11        4YY         0.00100   0.00000   0.00000   0.00350   0.00034
  12        4ZZ        -0.02529   0.00000   0.00000  -0.01743  -0.00106
  13        4XY         0.00000   0.00000   0.00000   0.00000   0.00000
  14        4XZ         0.00000  -0.02399   0.00000   0.00000   0.00000
  15        4YZ         0.00000   0.00000  -0.02399   0.00000   0.00000
  16 2   N  1S          0.04811   0.00000   0.00000   0.01079   0.00302
  17        2S         -0.12700   0.00000   0.00000  -0.03170  -0.00691
  18        2PX         0.00000   0.22089   0.00000   0.00000   0.00000
  19        2PY         0.00000   0.00000   0.22089   0.00000   0.00000
  20        2PZ        -0.00938   0.00000   0.00000  -0.17238  -0.00971
  21        3S         -0.18282   0.00000   0.00000   0.04672  -0.00144
  22        3PX         0.00000   0.13130   0.00000   0.00000   0.00000
  23        3PY         0.00000   0.00000   0.13130   0.00000   0.00000
  24        3PZ        -0.04672   0.00000   0.00000  -0.07633  -0.00313
  25        4XX        -0.00144   0.00000   0.00000   0.00313   0.00031
  26        4YY        -0.00144   0.00000   0.00000   0.00313   0.00031
  27        4ZZ         0.00912   0.00000   0.00000  -0.01200  -0.00098
  28        4XY         0.00000   0.00000   0.00000   0.00000   0.00000
  29        4XZ         0.00000   0.02399   0.00000   0.00000   0.00000
  30        4YZ         0.00000   0.00000   0.02399   0.00000   0.00000
                          11        12        13        14        15
  11        4YY         0.00034
  12        4ZZ        -0.00106   0.00431
  13        4XY         0.00000   0.00000   0.00000
  14        4XZ         0.00000   0.00000   0.00000   0.00438
  15        4YZ         0.00000   0.00000   0.00000   0.00000   0.00438
  16 2   N  1S          0.00302  -0.01332   0.00000   0.00000   0.00000
  17        2S         -0.00691   0.02593   0.00000   0.00000   0.00000
  18        2PX         0.00000   0.00000   0.00000  -0.04037   0.00000
  19        2PY         0.00000   0.00000   0.00000   0.00000  -0.04037
  20        2PZ        -0.00971   0.03309   0.00000   0.00000   0.00000
  21        3S         -0.00144   0.00912   0.00000   0.00000   0.00000
  22        3PX         0.00000   0.00000   0.00000  -0.02399   0.00000
  23        3PY         0.00000   0.00000   0.00000   0.00000  -0.02399
  24        3PZ        -0.00313   0.01200   0.00000   0.00000   0.00000
  25        4XX         0.00031  -0.00098   0.00000   0.00000   0.00000
  26        4YY         0.00031  -0.00098   0.00000   0.00000   0.00000
  27        4ZZ        -0.00098   0.00305   0.00000   0.00000   0.00000
  28        4XY         0.00000   0.00000   0.00000   0.00000   0.00000
  29        4XZ         0.00000   0.00000   0.00000  -0.00438   0.00000
  30        4YZ         0.00000   0.00000   0.00000   0.00000  -0.00438
                          16        17        18        19        20
  16 2   N  1S          2.07987
  17        2S         -0.17042   0.48117
  18        2PX         0.00000   0.00000   0.37163
  19        2PY         0.00000   0.00000   0.00000   0.37163
  20        2PZ         0.05298  -0.10028   0.00000   0.00000   0.60489
  21        3S         -0.24126   0.52796   0.00000   0.00000  -0.42620
  22        3PX         0.00000   0.00000   0.22089   0.00000   0.00000
  23        3PY         0.00000   0.00000   0.00000   0.22089   0.00000
  24        3PZ         0.03301  -0.07166   0.00000   0.00000   0.23812
  25        4XX        -0.00480  -0.00539   0.00000   0.00000  -0.01081
  26        4YY        -0.00480  -0.00539   0.00000   0.00000  -0.01081
  27        4ZZ        -0.00487   0.00189   0.00000   0.00000   0.04835
  28        4XY         0.00000   0.00000   0.00000   0.00000   0.00000
  29        4XZ         0.00000   0.00000   0.04037   0.00000   0.00000
  30        4YZ         0.00000   0.00000   0.00000   0.04037   0.00000
                          21        22        23        24        25
  21        3S          0.75692
  22        3PX         0.00000   0.13130
  23        3PY         0.00000   0.00000   0.13130
  24        3PZ        -0.19495   0.00000   0.00000   0.09971
  25        4XX         0.00100   0.00000   0.00000  -0.00350   0.00034
  26        4YY         0.00100   0.00000   0.00000  -0.00350   0.00034
  27        4ZZ        -0.02529   0.00000   0.00000   0.01743  -0.00106
  28        4XY         0.00000   0.00000   0.00000   0.00000   0.00000
  29        4XZ         0.00000   0.02399   0.00000   0.00000   0.00000
  30        4YZ         0.00000   0.00000   0.02399   0.00000   0.00000
                          26        27        28        29        30
  26        4YY         0.00034
  27        4ZZ        -0.00106   0.00431
  28        4XY         0.00000   0.00000   0.00000
  29        4XZ         0.00000   0.00000   0.00000   0.00438
  30        4YZ         0.00000   0.00000   0.00000   0.00000   0.00438
    Full Mulliken population analysis:
                           1         2         3         4         5
   1 1   N  1S          2.07987
   2        2S         -0.03787   0.48117
   3        2PX         0.00000   0.00000   0.37163
   4        2PY         0.00000   0.00000   0.00000   0.37163
   5        2PZ         0.00000   0.00000   0.00000   0.00000   0.60489
   6        3S         -0.04147   0.40943   0.00000   0.00000   0.00000
   7        3PX         0.00000   0.00000   0.11471   0.00000   0.00000
   8        3PY         0.00000   0.00000   0.00000   0.11471   0.00000
   9        3PZ         0.00000   0.00000   0.00000   0.00000   0.12366
  10        4XX        -0.00024  -0.00343   0.00000   0.00000   0.00000
  11        4YY        -0.00024  -0.00343   0.00000   0.00000   0.00000
  12        4ZZ        -0.00025   0.00120   0.00000   0.00000   0.00000
  13        4XY         0.00000   0.00000   0.00000   0.00000   0.00000
  14        4XZ         0.00000   0.00000   0.00000   0.00000   0.00000
  15        4YZ         0.00000   0.00000   0.00000   0.00000   0.00000
  16 2   N  1S          0.00000  -0.00037   0.00000   0.00000  -0.00343
  17        2S         -0.00037   0.00476   0.00000   0.00000   0.05334
  18        2PX         0.00000   0.00000   0.04249   0.00000   0.00000
  19        2PY         0.00000   0.00000   0.00000   0.04249   0.00000
  20        2PZ        -0.00343   0.05334   0.00000   0.00000   0.13885
  21        3S          0.00324  -0.04673   0.00000   0.00000  -0.00220
  22        3PX         0.00000   0.00000   0.05279   0.00000   0.00000
  23        3PY         0.00000   0.00000   0.00000   0.05279   0.00000
  24        3PZ        -0.00138   0.01770   0.00000   0.00000   0.02266
  25        4XX         0.00001  -0.00076   0.00000   0.00000  -0.00140
  26        4YY         0.00001  -0.00076   0.00000   0.00000  -0.00140
  27        4ZZ        -0.00144   0.01164   0.00000   0.00000   0.01447
  28        4XY         0.00000   0.00000   0.00000   0.00000   0.00000
  29        4XZ         0.00000   0.00000   0.01087   0.00000   0.00000
  30        4YZ         0.00000   0.00000   0.00000   0.01087   0.00000
                           6         7         8         9        10
   6        3S          0.75692
   7        3PX         0.00000   0.13130
   8        3PY         0.00000   0.00000   0.13130
   9        3PZ         0.00000   0.00000   0.00000   0.09971
  10        4XX         0.00067   0.00000   0.00000   0.00000   0.00034
  11        4YY         0.00067   0.00000   0.00000   0.00000   0.00011
  12        4ZZ        -0.01695   0.00000   0.00000   0.00000  -0.00035
  13        4XY         0.00000   0.00000   0.00000   0.00000   0.00000
  14        4XZ         0.00000   0.00000   0.00000   0.00000   0.00000
  15        4YZ         0.00000   0.00000   0.00000   0.00000   0.00000
  16 2   N  1S          0.00324   0.00000   0.00000  -0.00138   0.00001
  17        2S         -0.04673   0.00000   0.00000   0.01770  -0.00076
  18        2PX         0.00000   0.05279   0.00000   0.00000   0.00000
  19        2PY         0.00000   0.00000   0.05279   0.00000   0.00000
  20        2PZ        -0.00220   0.00000   0.00000   0.02266  -0.00140
  21        3S         -0.11267   0.00000   0.00000  -0.02833  -0.00045
  22        3PX         0.00000   0.08092   0.00000   0.00000   0.00000
  23        3PY         0.00000   0.00000   0.08092   0.00000   0.00000
  24        3PZ        -0.02833   0.00000   0.00000  -0.00150  -0.00152
  25        4XX        -0.00045   0.00000   0.00000  -0.00152   0.00005
  26        4YY        -0.00045   0.00000   0.00000  -0.00152   0.00002
  27        4ZZ         0.00400   0.00000   0.00000   0.00510  -0.00024
  28        4XY         0.00000   0.00000   0.00000   0.00000   0.00000
  29        4XZ         0.00000   0.00534   0.00000   0.00000   0.00000
  30        4YZ         0.00000   0.00000   0.00534   0.00000   0.00000
                          11        12        13        14        15
  11        4YY         0.00034
  12        4ZZ        -0.00035   0.00431
  13        4XY         0.00000   0.00000   0.00000
  14        4XZ         0.00000   0.00000   0.00000   0.00438
  15        4YZ         0.00000   0.00000   0.00000   0.00000   0.00438
  16 2   N  1S          0.00001  -0.00144   0.00000   0.00000   0.00000
  17        2S         -0.00076   0.01164   0.00000   0.00000   0.00000
  18        2PX         0.00000   0.00000   0.00000   0.01087   0.00000
  19        2PY         0.00000   0.00000   0.00000   0.00000   0.01087
  20        2PZ        -0.00140   0.01447   0.00000   0.00000   0.00000
  21        3S         -0.00045   0.00400   0.00000   0.00000   0.00000
  22        3PX         0.00000   0.00000   0.00000   0.00534   0.00000
  23        3PY         0.00000   0.00000   0.00000   0.00000   0.00534
  24        3PZ        -0.00152   0.00510   0.00000   0.00000   0.00000
  25        4XX         0.00002  -0.00024   0.00000   0.00000   0.00000
  26        4YY         0.00005  -0.00024   0.00000   0.00000   0.00000
  27        4ZZ        -0.00024   0.00148   0.00000   0.00000   0.00000
  28        4XY         0.00000   0.00000   0.00000   0.00000   0.00000
  29        4XZ         0.00000   0.00000   0.00000   0.00187   0.00000
  30        4YZ         0.00000   0.00000   0.00000   0.00000   0.00187
                          16        17        18        19        20
  16 2   N  1S          2.07987
  17        2S         -0.03787   0.48117
  18        2PX         0.00000   0.00000   0.37163
  19        2PY         0.00000   0.00000   0.00000   0.37163
  20        2PZ         0.00000   0.00000   0.00000   0.00000   0.60489
  21        3S         -0.04147   0.40943   0.00000   0.00000   0.00000
  22        3PX         0.00000   0.00000   0.11471   0.00000   0.00000
  23        3PY         0.00000   0.00000   0.00000   0.11471   0.00000
  24        3PZ         0.00000   0.00000   0.00000   0.00000   0.12366
  25        4XX        -0.00024  -0.00343   0.00000   0.00000   0.00000
  26        4YY        -0.00024  -0.00343   0.00000   0.00000   0.00000
  27        4ZZ        -0.00025   0.00120   0.00000   0.00000   0.00000
  28        4XY         0.00000   0.00000   0.00000   0.00000   0.00000
  29        4XZ         0.00000   0.00000   0.00000   0.00000   0.00000
  30        4YZ         0.00000   0.00000   0.00000   0.00000   0.00000
                          21        22        23        24        25
  21        3S          0.75692
  22        3PX         0.00000   0.13130
  23        3PY         0.00000   0.00000   0.13130
  24        3PZ         0.00000   0.00000   0.00000   0.09971
  25        4XX         0.00067   0.00000   0.00000   0.00000   0.00034
  26        4YY         0.00067   0.00000   0.00000   0.00000   0.00011
  27        4ZZ        -0.01695   0.00000   0.00000   0.00000  -0.00035
  28        4XY         0.00000   0.00000   0.00000   0.00000   0.00000
  29        4XZ         0.00000   0.00000   0.00000   0.00000   0.00000
  30        4YZ         0.00000   0.00000   0.00000   0.00000   0.00000
                          26        27        28        29        30
  26        4YY         0.00034
  27        4ZZ        -0.00035   0.00431
  28        4XY         0.00000   0.00000   0.00000
  29        4XZ         0.00000   0.00000   0.00000   0.00438
  30        4YZ         0.00000   0.00000   0.00000   0.00000   0.00438
     Gross orbital populations:
                           1
   1 1   N  1S          1.99644
   2        2S          0.88590
   3        2PX         0.59248
   4        2PY         0.59248
   5        2PZ         0.94943
   6        3S          0.92567
   7        3PX         0.38505
   8        3PY         0.38505
   9        3PZ         0.23458
  10        4XX        -0.00720
  11        4YY        -0.00720
  12        4ZZ         0.02237
  13        4XY         0.00000
  14        4XZ         0.02247
  15        4YZ         0.02247
  16 2   N  1S          1.99644
  17        2S          0.88590
  18        2PX         0.59248
  19        2PY         0.59248
  20        2PZ         0.94943
  21        3S          0.92567
  22        3PX         0.38505
  23        3PY         0.38505
  24        3PZ         0.23458
  25        4XX        -0.00720
  26        4YY        -0.00720
  27        4ZZ         0.02237
  28        4XY         0.00000
  29        4XZ         0.02247
  30        4YZ         0.02247
          Condensed to atoms (all electrons):
               1          2
     1  N    6.363322   0.636678
     2  N    0.636678   6.363322
 Mulliken charges:
               1
     1  N    0.000000
     2  N    0.000000
 Sum of Mulliken charges =   0.00000
 Mulliken charges with hydrogens summed into heavy atoms:
               1
     1  N    0.000000
     2  N    0.000000
 Atomic Valencies and Mayer Atomic Bond Orders:
               1          2
     1  N    2.808466   2.808466
     2  N    2.808466   2.808466
 Lowdin Atomic Charges:
               1
     1  N    0.000000
     2  N    0.000000
 Sum of Lowdin charges  =   0.00000
 Lowdin atomic charges with hydrogens summed into heavy atoms:
               1
     1  N    0.000000
     2  N    0.000000
 Sum of Lowdin charges  =   0.00000
 Dipole moment from Lowdin charges (Debye):
    X=     0.0000    Y=     0.0000    Z=     0.0000  Tot=     0.0000
 Electronic spatial extent (au):  <R**2>=             40.1166
 Charge=              0.0000 electrons
 Dipole moment (field-independent basis, Debye):
    X=              0.0000    Y=              0.0000    Z=              0.0000  Tot=              0.0000
 Quadrupole moment (field-independent basis, Debye-Ang):
   XX=            -10.3683   YY=            -10.3683   ZZ=            -11.7276
   XY=              0.0000   XZ=              0.0000   YZ=              0.0000
 Traceless Quadrupole moment (field-independent basis, Debye-Ang):
   XX=              0.4531   YY=              0.4531   ZZ=             -0.9062
   XY=              0.0000   XZ=              0.0000   YZ=              0.0000
 Octapole moment (field-independent basis, Debye-Ang**2):
  XXX=              0.0000  YYY=              0.0000  ZZZ=              0.0000  XYY=              0.0000
  XXY=              0.0000  XXZ=              0.0000  XZZ=              0.0000  YZZ=              0.0000
  YYZ=              0.0000  XYZ=              0.0000
 Hexadecapole moment (field-independent basis, Debye-Ang**3):
 XXXX=             -8.5461 YYYY=             -8.5461 ZZZZ=            -32.0870 XXXY=              0.0000
 XXXZ=              0.0000 YYYX=              0.0000 YYYZ=              0.0000 ZZZX=              0.0000
 ZZZY=              0.0000 XXYY=             -2.8487 XXZZ=             -6.3600 YYZZ=             -6.3600
 XXYZ=              0.0000 YYXZ=              0.0000 ZZXY=              0.0000
 N-N= 2.293174403895D+01 E-N=-3.010301645306D+02  KE= 1.082377497521D+02
 Symmetry AG   KE= 5.304048290691D+01
 Symmetry B1G  KE= 1.256455672631D-34
 Symmetry B2G  KE= 1.187213598266D-32
 Symmetry B3G  KE= 1.879337345365D-32
 Symmetry AU   KE= 4.704907419465D-34
 Symmetry B1U  KE= 4.881278707306D+01
 Symmetry B2U  KE= 3.192239886051D+00
 Symmetry B3U  KE= 3.192239886051D+00
 Orbital energies and kinetic energies (alpha):
                                 1                 2
   1 (SGG)--O                -15.706823         22.077129
   2 (SGU)--O                -15.703987         22.107994
   3 (SGG)--O                 -1.449610          2.431662
   4 (SGU)--O                 -0.786880          2.298399
   5 (SGG)--O                 -0.627163          2.011451
   6 (PIU)--O                 -0.598119          1.596120
   7 (PIU)--O                 -0.598119          1.596120
   8 (PIG)--V                  0.153313          1.770161
   9 (PIG)--V                  0.153313          1.770161
  10 (SGU)--V                  0.573256          1.484798
  11 (SGG)--V                  0.783002          1.459979
  12 (SGG)--V                  0.837456          2.070441
  13 (PIU)--V                  0.845242          2.430015
  14 (PIU)--V                  0.845242          2.430015
  15 (PIG)--V                  1.007619          2.955837
  16 (PIG)--V                  1.007619          2.955837
  17 (SGU)--V                  1.030297          3.295114
  18 (SGU)--V                  1.450679          2.964130
  19 (DLTG)--V                 1.728180          2.597385
  20 (DLTG)--V                 1.728180          2.597385
  21 (PIU)--V                  1.821329          2.985825
  22 (PIU)--V                  1.821329          2.985825
  23 (DLTU)--V                 2.237230          3.080379
  24 (DLTU)--V                 2.237230          3.080379
  25 (SGG)--V                  2.705399          4.038182
  26 (PIG)--V                  2.908189          3.900200
  27 (PIG)--V                  2.908189          3.900200
  28 (SGU)--V                  3.159343          5.817336
  29 (SGG)--V                  3.671294          8.609086
  30 (SGU)--V                  3.961463          9.565771
 Total kinetic energy from orbitals= 1.082377497521D+02
 No NMR shielding tensors so no spin-rotation constants.
 Leave Link  601 at Wed Mar 25 13:19:57 2026, MaxMem=    33554432 cpu:         0.0
 (Enter /opt/g09/g09/l9999.exe)

 Test job not archived.
 1\1\GINC-KADET27\FOpt\RMP2-FC\6-31G(d)\N2\MDOROHUN\25-Mar-2026\0\\#P M
 P2/6-31G(d) Opt GFInput Pop=Full IOP(6/80=1)\\optymalizacja geometrii 
 n2 metoda MP2\\0,1\N,0.,0.,-0.0163665761\N,0.,0.,1.1143665761\\Version
 =ES64L-G09RevD.01\State=1-SGG\HF=-108.9351637\MP2=-109.2552776\RMSD=9.
 831e-10\RMSF=1.363e-05\Dipole=0.,0.,0.\PG=D*H [C*(N1.N1)]\\@


 FAULTILY FAULTLESS, ICILY REGULAR, SPLENDIDLY NULL...
           MAUDE BY TENNYSON
 Job cpu time:       0 days  0 hours  0 minutes  1.5 seconds.
 File lengths (MBytes):  RWF=      5 Int=      0 D2E=      0 Chk=      2 Scr=      1
 Normal termination of Gaussian 09 at Wed Mar 25 13:19:57 2026.
