 Entering Gaussian System, Link 0=/opt/g09/g09/g09
 Input=n2p_sgm_MP2.inp
 Output=n2p_sgm_MP2.log
 Initial command:
 /opt/g09/g09/l1.exe "/tmp/Gau-12820.inp" -scrdir="/tmp/"
 Entering Link 1 = /opt/g09/g09/l1.exe PID=     12822.
  
 Copyright (c) 1988,1990,1992,1993,1995,1998,2003,2009,2013,
            Gaussian, Inc.  All Rights Reserved.
  
 This is part of the Gaussian(R) 09 program.  It is based on
 the Gaussian(R) 03 system (copyright 2003, Gaussian, Inc.),
 the Gaussian(R) 98 system (copyright 1998, Gaussian, Inc.),
 the Gaussian(R) 94 system (copyright 1995, Gaussian, Inc.),
 the Gaussian 92(TM) system (copyright 1992, Gaussian, Inc.),
 the Gaussian 90(TM) system (copyright 1990, Gaussian, Inc.),
 the Gaussian 88(TM) system (copyright 1988, Gaussian, Inc.),
 the Gaussian 86(TM) system (copyright 1986, Carnegie Mellon
 University), and the Gaussian 82(TM) system (copyright 1983,
 Carnegie Mellon University). Gaussian is a federally registered
 trademark of Gaussian, Inc.
  
 This software contains proprietary and confidential information,
 including trade secrets, belonging to Gaussian, Inc.
  
 This software is provided under written license and may be
 used, copied, transmitted, or stored only in accord with that
 written license.
  
 The following legend is applicable only to US Government
 contracts under FAR:
  
                    RESTRICTED RIGHTS LEGEND
  
 Use, reproduction and disclosure by the US Government is
 subject to restrictions as set forth in subparagraphs (a)
 and (c) of the Commercial Computer Software - Restricted
 Rights clause in FAR 52.227-19.
  
 Gaussian, Inc.
 340 Quinnipiac St., Bldg. 40, Wallingford CT 06492
  
  
 ---------------------------------------------------------------
 Warning -- This program may not be used in any manner that
 competes with the business of Gaussian, Inc. or will provide
 assistance to any competitor of Gaussian, Inc.  The licensee
 of this program is prohibited from giving any competitor of
 Gaussian, Inc. access to this program.  By using this program,
 the user acknowledges that Gaussian, Inc. is engaged in the
 business of creating and licensing software in the field of
 computational chemistry and represents and warrants to the
 licensee that it is not a competitor of Gaussian, Inc. and that
 it will not use this program in any manner prohibited above.
 ---------------------------------------------------------------
  

 Cite this work as:
 Gaussian 09, Revision D.01,
 M. J. Frisch, G. W. Trucks, H. B. Schlegel, G. E. Scuseria, 
 M. A. Robb, J. R. Cheeseman, G. Scalmani, V. Barone, B. Mennucci, 
 G. A. Petersson, H. Nakatsuji, M. Caricato, X. Li, H. P. Hratchian, 
 A. F. Izmaylov, J. Bloino, G. Zheng, J. L. Sonnenberg, M. Hada, 
 M. Ehara, K. Toyota, R. Fukuda, J. Hasegawa, M. Ishida, T. Nakajima, 
 Y. Honda, O. Kitao, H. Nakai, T. Vreven, J. A. Montgomery, Jr., 
 J. E. Peralta, F. Ogliaro, M. Bearpark, J. J. Heyd, E. Brothers, 
 K. N. Kudin, V. N. Staroverov, T. Keith, R. Kobayashi, J. Normand, 
 K. Raghavachari, A. Rendell, J. C. Burant, S. S. Iyengar, J. Tomasi, 
 M. Cossi, N. Rega, J. M. Millam, M. Klene, J. E. Knox, J. B. Cross, 
 V. Bakken, C. Adamo, J. Jaramillo, R. Gomperts, R. E. Stratmann, 
 O. Yazyev, A. J. Austin, R. Cammi, C. Pomelli, J. W. Ochterski, 
 R. L. Martin, K. Morokuma, V. G. Zakrzewski, G. A. Voth, 
 P. Salvador, J. J. Dannenberg, S. Dapprich, A. D. Daniels, 
 O. Farkas, J. B. Foresman, J. V. Ortiz, J. Cioslowski, 
 and D. J. Fox, Gaussian, Inc., Wallingford CT, 2013.
 
 ******************************************
 Gaussian 09:  ES64L-G09RevD.01 24-Apr-2013
                25-Mar-2026 
 ******************************************
 %oldchk=n2_MP2.chk
 %chk=n2p_sgm_MP2.chk
 Copying data from "n2_MP2.chk" to current chk file "n2p_sgm_MP2.chk".
 ---------------------------------------------------------------
 #P MP2/6-31G(d) guess=(read,alter) GFInput Pop=Full IOP(6/80=1)
 ---------------------------------------------------------------
 1/38=1/1;
 2/12=2,17=6,18=5,40=1/2;
 3/5=1,6=6,7=1,11=9,16=1,24=10,25=1,30=1,116=-2/1,2,3;
 4/5=1,8=1/1;
 5/5=2,38=6/2;
 8/10=2/1;
 9/16=-3/6;
 6/7=3,80=1/1;
 99/5=1,9=1/99;
 Leave Link    1 at Wed Mar 25 13:22:20 2026, MaxMem=    33554432 cpu:         0.0
 (Enter /opt/g09/g09/l101.exe)
 ----------------------------------
 n2 energia jonu w stanie Sigma MP2
 ----------------------------------
 Symbolic Z-matrix:
 Charge =  1 Multiplicity = 2
 N
 N                    1     1.1307 
 
 NAtoms=      2 NQM=        2 NQMF=       0 NMMI=      0 NMMIF=      0
                NMic=       0 NMicF=      0.
                    Isotopes and Nuclear Properties:
 (Nuclear quadrupole moments (NQMom) in fm**2, nuclear magnetic moments (NMagM)
  in nuclear magnetons)

  Atom         1           2
 IAtWgt=          14          14
 AtmWgt=  14.0030740  14.0030740
 NucSpn=           2           2
 AtZEff=   0.0000000   0.0000000
 NQMom=    2.0440000   2.0440000
 NMagM=    0.4037610   0.4037610
 AtZNuc=   7.0000000   7.0000000
 Leave Link  101 at Wed Mar 25 13:22:20 2026, MaxMem=    33554432 cpu:         0.0
 (Enter /opt/g09/g09/l202.exe)
                          Input orientation:                          
 ---------------------------------------------------------------------
 Center     Atomic      Atomic             Coordinates (Angstroms)
 Number     Number       Type             X           Y           Z
 ---------------------------------------------------------------------
      1          7           0        0.000000    0.000000    0.000000
      2          7           0        0.000000    0.000000    1.130700
 ---------------------------------------------------------------------
 Stoichiometry    N2(1+,2)
 Framework group  D*H[C*(N.N)]
 Deg. of freedom     1
 Full point group                 D*H     NOp   8
 Largest Abelian subgroup         D2H     NOp   8
 Largest concise Abelian subgroup C2      NOp   2
                         Standard orientation:                         
 ---------------------------------------------------------------------
 Center     Atomic      Atomic             Coordinates (Angstroms)
 Number     Number       Type             X           Y           Z
 ---------------------------------------------------------------------
      1          7           0        0.000000    0.000000    0.565350
      2          7           0        0.000000    0.000000   -0.565350
 ---------------------------------------------------------------------
 Rotational constants (GHZ):      0.0000000     56.4584594     56.4584594
 Leave Link  202 at Wed Mar 25 13:22:20 2026, MaxMem=    33554432 cpu:         0.0
 (Enter /opt/g09/g09/l301.exe)
 Standard basis: 6-31G(d) (6D, 7F)
 Ernie: Thresh=  0.10000D-02 Tol=  0.10000D-05 Strict=F.
 AO basis set in the form of general basis input (Overlap normalization):
      1 0
 S   6 1.00       0.000000000000
      0.4173511460D+04  0.1834772160D-02
      0.6274579110D+03  0.1399462700D-01
      0.1429020930D+03  0.6858655181D-01
      0.4023432930D+02  0.2322408730D+00
      0.1282021290D+02  0.4690699481D+00
      0.4390437010D+01  0.3604551991D+00
 SP   3 1.00       0.000000000000
      0.1162636186D+02 -0.1149611817D+00  0.6757974388D-01
      0.2716279807D+01 -0.1691174786D+00  0.3239072959D+00
      0.7722183966D+00  0.1145851947D+01  0.7408951398D+00
 SP   1 1.00       0.000000000000
      0.2120314975D+00  0.1000000000D+01  0.1000000000D+01
 D   1 1.00       0.000000000000
      0.8000000000D+00  0.1000000000D+01
 ****
      2 0
 S   6 1.00       0.000000000000
      0.4173511460D+04  0.1834772160D-02
      0.6274579110D+03  0.1399462700D-01
      0.1429020930D+03  0.6858655181D-01
      0.4023432930D+02  0.2322408730D+00
      0.1282021290D+02  0.4690699481D+00
      0.4390437010D+01  0.3604551991D+00
 SP   3 1.00       0.000000000000
      0.1162636186D+02 -0.1149611817D+00  0.6757974388D-01
      0.2716279807D+01 -0.1691174786D+00  0.3239072959D+00
      0.7722183966D+00  0.1145851947D+01  0.7408951398D+00
 SP   1 1.00       0.000000000000
      0.2120314975D+00  0.1000000000D+01  0.1000000000D+01
 D   1 1.00       0.000000000000
      0.8000000000D+00  0.1000000000D+01
 ****

 There are     8 symmetry adapted cartesian basis functions of AG  symmetry.
 There are     1 symmetry adapted cartesian basis functions of B1G symmetry.
 There are     3 symmetry adapted cartesian basis functions of B2G symmetry.
 There are     3 symmetry adapted cartesian basis functions of B3G symmetry.
 There are     1 symmetry adapted cartesian basis functions of AU  symmetry.
 There are     8 symmetry adapted cartesian basis functions of B1U symmetry.
 There are     3 symmetry adapted cartesian basis functions of B2U symmetry.
 There are     3 symmetry adapted cartesian basis functions of B3U symmetry.
 There are     8 symmetry adapted basis functions of AG  symmetry.
 There are     1 symmetry adapted basis functions of B1G symmetry.
 There are     3 symmetry adapted basis functions of B2G symmetry.
 There are     3 symmetry adapted basis functions of B3G symmetry.
 There are     1 symmetry adapted basis functions of AU  symmetry.
 There are     8 symmetry adapted basis functions of B1U symmetry.
 There are     3 symmetry adapted basis functions of B2U symmetry.
 There are     3 symmetry adapted basis functions of B3U symmetry.
    30 basis functions,    56 primitive gaussians,    30 cartesian basis functions
     7 alpha electrons        6 beta electrons
       nuclear repulsion energy        22.9324163977 Hartrees.
 IExCor=    0 DFT=F Ex=HF Corr=None ExCW=0 ScaHFX=  1.000000
 ScaDFX=  1.000000  1.000000  1.000000  1.000000 ScalE2=  1.000000  1.000000
 IRadAn=      0 IRanWt=     -1 IRanGd=            0 ICorTp=0 IEmpDi=  4
 NAtoms=    2 NActive=    2 NUniq=    1 SFac= 4.00D+00 NAtFMM=   60 NAOKFM=F Big=F
 Integral buffers will be    131072 words long.
 Raffenetti 2 integral format.
 Two-electron integral symmetry is turned on.
 Leave Link  301 at Wed Mar 25 13:22:20 2026, MaxMem=    33554432 cpu:         0.0
 (Enter /opt/g09/g09/l302.exe)
 NPDir=0 NMtPBC=     1 NCelOv=     1 NCel=       1 NClECP=     1 NCelD=      1
         NCelK=      1 NCelE2=     1 NClLst=     1 CellRange=     0.0.
 One-electron integrals computed using PRISM.
 One-electron integral symmetry used in STVInt
 NBasis=    30 RedAO= T EigKep=  7.05D-03  NBF=     8     1     3     3     1     8     3     3
 NBsUse=    30 1.00D-06 EigRej= -1.00D+00 NBFU=     8     1     3     3     1     8     3     3
 Leave Link  302 at Wed Mar 25 13:22:20 2026, MaxMem=    33554432 cpu:         0.0
 (Enter /opt/g09/g09/l303.exe)
 DipDrv:  MaxL=1.
 Leave Link  303 at Wed Mar 25 13:22:20 2026, MaxMem=    33554432 cpu:         0.0
 (Enter /opt/g09/g09/l401.exe)
 Initial guess from the checkpoint file:  "n2p_sgm_MP2.chk"
 B after Tr=     0.000000    0.000000    0.000000
         Rot=    1.000000    0.000000    0.000000    0.000000 Ang=   0.00 deg.
 Guess basis will be translated and rotated to current coordinates.
 JPrj=2 DoOrth=T DoCkMO=T.
 No Alpha orbitals switched.
 Pairs of Beta  orbitals switched:
    5   7
 Initial guess orbital symmetries:
 Alpha Orbitals:
       Occupied  (SGG) (SGU) (SGG) (SGU) (SGG) (PIU) (PIU)
       Virtual   (PIG) (PIG) (SGU) (SGG) (SGG) (PIU) (PIU) (PIG)
                 (PIG) (SGU) (SGU) (DLTG) (DLTG) (PIU) (PIU) (DLTU)
                 (DLTU) (SGG) (PIG) (PIG) (SGU) (SGG) (SGU)
 Beta  Orbitals:
       Occupied  (SGG) (SGU) (SGG) (SGU) (PIU) (PIU)
       Virtual   (SGG) (PIG) (PIG) (SGU) (SGG) (SGG) (PIU) (PIU)
                 (PIG) (PIG) (SGU) (SGU) (DLTG) (DLTG) (PIU) (PIU)
                 (DLTU) (DLTU) (SGG) (PIG) (PIG) (SGU) (SGG) (SGU)
 The electronic state of the initial guess is 2-SGG.
 Initial guess <Sx>= 0.0000 <Sy>= 0.0000 <Sz>= 0.5000 <S**2>= 0.7500 S= 0.5000
 Leave Link  401 at Wed Mar 25 13:22:20 2026, MaxMem=    33554432 cpu:         0.0
 (Enter /opt/g09/g09/l502.exe)
 UHF open shell SCF:
 Using DIIS extrapolation, IDIIS=  1040.
 Integral symmetry usage will be decided dynamically.
 Keep R1 and R2 ints in memory in symmetry-blocked form, NReq=959811.
 IVT=       21766 IEndB=       21766 NGot=    33554432 MDV=    33499153
 LenX=    33499153 LenY=    33497812
 Requested convergence on RMS density matrix=1.00D-08 within 128 cycles.
 Requested convergence on MAX density matrix=1.00D-06.
 Requested convergence on             energy=1.00D-06.
 No special actions if energy rises.
 FoFCou: FMM=F IPFlag=           0 FMFlag=           0 FMFlg1=           0
         NFxFlg=           0 DoJE=F BraDBF=F KetDBF=F FulRan=T
         wScrn=  0.000000 ICntrl=     600 IOpCl=  0 I1Cent=           0 NGrid=           0
         NMat0=    1 NMatS0=    465 NMatT0=    0 NMatD0=    1 NMtDS0=    0 NMtDT0=    0
 Petite list used in FoFCou.

 Cycle   1  Pass 1  IDiag  1:
 E= -108.308001945618    
 DIIS: error= 5.21D-02 at cycle   1 NSaved=   1.
 NSaved= 1 IEnMin= 1 EnMin= -108.308001945618     IErMin= 1 ErrMin= 5.21D-02
 ErrMax= 5.21D-02  0.00D+00 EMaxC= 1.00D-01 BMatC= 1.81D-01 BMatP= 1.81D-01
 IDIUse=3 WtCom= 4.79D-01 WtEn= 5.21D-01
 Coeff-Com:  0.100D+01
 Coeff-En:   0.100D+01
 Coeff:      0.100D+01
 Gap=     0.772 Goal=   None    Shift=    0.000
 Gap=     0.446 Goal=   None    Shift=    0.000
 GapD=    0.446 DampG=2.000 DampE=0.500 DampFc=1.0000 IDamp=-1.
 RMSDP=9.16D-03 MaxDP=8.23D-02              OVMax= 7.14D-02

 Cycle   2  Pass 1  IDiag  1:
 E= -108.358678526601     Delta-E=       -0.050676580983 Rises=F Damp=F
 DIIS: error= 1.27D-02 at cycle   2 NSaved=   2.
 NSaved= 2 IEnMin= 2 EnMin= -108.358678526601     IErMin= 2 ErrMin= 1.27D-02
 ErrMax= 1.27D-02  0.00D+00 EMaxC= 1.00D-01 BMatC= 1.12D-02 BMatP= 1.81D-01
 IDIUse=3 WtCom= 8.73D-01 WtEn= 1.27D-01
 Coeff-Com:  0.888D-01 0.911D+00
 Coeff-En:   0.000D+00 0.100D+01
 Coeff:      0.776D-01 0.922D+00
 Gap=     0.762 Goal=   None    Shift=    0.000
 Gap=     0.476 Goal=   None    Shift=    0.000
 RMSDP=2.18D-03 MaxDP=3.70D-02 DE=-5.07D-02 OVMax= 1.94D-02

 Cycle   3  Pass 1  IDiag  1:
 E= -108.361641935763     Delta-E=       -0.002963409162 Rises=F Damp=F
 DIIS: error= 6.48D-03 at cycle   3 NSaved=   3.
 NSaved= 3 IEnMin= 3 EnMin= -108.361641935763     IErMin= 3 ErrMin= 6.48D-03
 ErrMax= 6.48D-03  0.00D+00 EMaxC= 1.00D-01 BMatC= 1.04D-03 BMatP= 1.12D-02
 IDIUse=3 WtCom= 9.35D-01 WtEn= 6.48D-02
 Coeff-Com: -0.629D-01-0.241D+00 0.130D+01
 Coeff-En:   0.000D+00 0.000D+00 0.100D+01
 Coeff:     -0.589D-01-0.226D+00 0.128D+01
 Gap=     0.762 Goal=   None    Shift=    0.000
 Gap=     0.490 Goal=   None    Shift=    0.000
 RMSDP=1.42D-03 MaxDP=2.31D-02 DE=-2.96D-03 OVMax= 1.26D-02

 Cycle   4  Pass 1  IDiag  1:
 E= -108.362090724164     Delta-E=       -0.000448788400 Rises=F Damp=F
 DIIS: error= 8.98D-04 at cycle   4 NSaved=   4.
 NSaved= 4 IEnMin= 4 EnMin= -108.362090724164     IErMin= 4 ErrMin= 8.98D-04
 ErrMax= 8.98D-04  0.00D+00 EMaxC= 1.00D-01 BMatC= 2.78D-05 BMatP= 1.04D-03
 IDIUse=3 WtCom= 9.91D-01 WtEn= 8.98D-03
 Coeff-Com:  0.329D-02 0.897D-02-0.215D+00 0.120D+01
 Coeff-En:   0.000D+00 0.000D+00 0.000D+00 0.100D+01
 Coeff:      0.326D-02 0.889D-02-0.213D+00 0.120D+01
 Gap=     0.762 Goal=   None    Shift=    0.000
 Gap=     0.491 Goal=   None    Shift=    0.000
 RMSDP=2.53D-04 MaxDP=3.88D-03 DE=-4.49D-04 OVMax= 2.09D-03

 Cycle   5  Pass 1  IDiag  1:
 E= -108.362102836102     Delta-E=       -0.000012111938 Rises=F Damp=F
 DIIS: error= 6.99D-05 at cycle   5 NSaved=   5.
 NSaved= 5 IEnMin= 5 EnMin= -108.362102836102     IErMin= 5 ErrMin= 6.99D-05
 ErrMax= 6.99D-05  0.00D+00 EMaxC= 1.00D-01 BMatC= 3.34D-07 BMatP= 2.78D-05
 IDIUse=1 WtCom= 1.00D+00 WtEn= 0.00D+00
 Coeff-Com:  0.498D-03 0.406D-02 0.539D-02-0.168D+00 0.116D+01
 Coeff:      0.498D-03 0.406D-02 0.539D-02-0.168D+00 0.116D+01
 Gap=     0.762 Goal=   None    Shift=    0.000
 Gap=     0.491 Goal=   None    Shift=    0.000
 RMSDP=2.07D-05 MaxDP=2.73D-04 DE=-1.21D-05 OVMax= 1.35D-04

 Cycle   6  Pass 1  IDiag  1:
 E= -108.362102952960     Delta-E=       -0.000000116858 Rises=F Damp=F
 DIIS: error= 1.59D-05 at cycle   6 NSaved=   6.
 NSaved= 6 IEnMin= 6 EnMin= -108.362102952960     IErMin= 6 ErrMin= 1.59D-05
 ErrMax= 1.59D-05  0.00D+00 EMaxC= 1.00D-01 BMatC= 9.46D-09 BMatP= 3.34D-07
 IDIUse=1 WtCom= 1.00D+00 WtEn= 0.00D+00
 Coeff-Com: -0.111D-03-0.104D-02 0.560D-03 0.299D-01-0.323D+00 0.129D+01
 Coeff:     -0.111D-03-0.104D-02 0.560D-03 0.299D-01-0.323D+00 0.129D+01
 Gap=     0.762 Goal=   None    Shift=    0.000
 Gap=     0.491 Goal=   None    Shift=    0.000
 RMSDP=2.43D-06 MaxDP=2.51D-05 DE=-1.17D-07 OVMax= 3.42D-05

 Cycle   7  Pass 1  IDiag  1:
 E= -108.362102956962     Delta-E=       -0.000000004002 Rises=F Damp=F
 DIIS: error= 4.78D-06 at cycle   7 NSaved=   7.
 NSaved= 7 IEnMin= 7 EnMin= -108.362102956962     IErMin= 7 ErrMin= 4.78D-06
 ErrMax= 4.78D-06  0.00D+00 EMaxC= 1.00D-01 BMatC= 3.91D-10 BMatP= 9.46D-09
 IDIUse=1 WtCom= 1.00D+00 WtEn= 0.00D+00
 Coeff-Com:  0.378D-04 0.357D-03-0.619D-03-0.675D-02 0.988D-01-0.520D+00
 Coeff-Com:  0.143D+01
 Coeff:      0.378D-04 0.357D-03-0.619D-03-0.675D-02 0.988D-01-0.520D+00
 Coeff:      0.143D+01
 Gap=     0.762 Goal=   None    Shift=    0.000
 Gap=     0.491 Goal=   None    Shift=    0.000
 RMSDP=4.93D-07 MaxDP=5.44D-06 DE=-4.00D-09 OVMax= 1.17D-05

 Cycle   8  Pass 1  IDiag  1:
 E= -108.362102957177     Delta-E=       -0.000000000215 Rises=F Damp=F
 DIIS: error= 9.00D-07 at cycle   8 NSaved=   8.
 NSaved= 8 IEnMin= 8 EnMin= -108.362102957177     IErMin= 8 ErrMin= 9.00D-07
 ErrMax= 9.00D-07  0.00D+00 EMaxC= 1.00D-01 BMatC= 1.31D-11 BMatP= 3.91D-10
 IDIUse=1 WtCom= 1.00D+00 WtEn= 0.00D+00
 Coeff-Com: -0.621D-05-0.606D-04 0.140D-03 0.902D-03-0.173D-01 0.107D+00
 Coeff-Com: -0.468D+00 0.138D+01
 Coeff:     -0.621D-05-0.606D-04 0.140D-03 0.902D-03-0.173D-01 0.107D+00
 Coeff:     -0.468D+00 0.138D+01
 Gap=     0.762 Goal=   None    Shift=    0.000
 Gap=     0.491 Goal=   None    Shift=    0.000
 RMSDP=1.00D-07 MaxDP=1.29D-06 DE=-2.15D-10 OVMax= 2.56D-06

 Cycle   9  Pass 1  IDiag  1:
 E= -108.362102957184     Delta-E=       -0.000000000007 Rises=F Damp=F
 DIIS: error= 4.07D-08 at cycle   9 NSaved=   9.
 NSaved= 9 IEnMin= 9 EnMin= -108.362102957184     IErMin= 9 ErrMin= 4.07D-08
 ErrMax= 4.07D-08  0.00D+00 EMaxC= 1.00D-01 BMatC= 5.34D-14 BMatP= 1.31D-11
 IDIUse=1 WtCom= 1.00D+00 WtEn= 0.00D+00
 Coeff-Com:  0.123D-05 0.129D-04-0.309D-04-0.168D-03 0.350D-02-0.225D-01
 Coeff-Com:  0.105D+00-0.335D+00 0.125D+01
 Coeff:      0.123D-05 0.129D-04-0.309D-04-0.168D-03 0.350D-02-0.225D-01
 Coeff:      0.105D+00-0.335D+00 0.125D+01
 Gap=     0.762 Goal=   None    Shift=    0.000
 Gap=     0.491 Goal=   None    Shift=    0.000
 RMSDP=1.59D-08 MaxDP=2.88D-07 DE=-7.11D-12 OVMax= 5.03D-08

 Cycle  10  Pass 1  IDiag  1:
 E= -108.362102957184     Delta-E=        0.000000000000 Rises=F Damp=F
 DIIS: error= 4.52D-09 at cycle  10 NSaved=  10.
 NSaved=10 IEnMin=10 EnMin= -108.362102957184     IErMin=10 ErrMin= 4.52D-09
 ErrMax= 4.52D-09  0.00D+00 EMaxC= 1.00D-01 BMatC= 9.95D-16 BMatP= 5.34D-14
 IDIUse=1 WtCom= 1.00D+00 WtEn= 0.00D+00
 Coeff-Com: -0.288D-06-0.313D-05 0.765D-05 0.374D-04-0.844D-03 0.552D-02
 Coeff-Com: -0.265D-01 0.858D-01-0.392D+00 0.133D+01
 Coeff:     -0.288D-06-0.313D-05 0.765D-05 0.374D-04-0.844D-03 0.552D-02
 Coeff:     -0.265D-01 0.858D-01-0.392D+00 0.133D+01
 Gap=     0.762 Goal=   None    Shift=    0.000
 Gap=     0.491 Goal=   None    Shift=    0.000
 RMSDP=1.71D-09 MaxDP=2.24D-08 DE=-2.84D-14 OVMax= 9.45D-09

 SCF Done:  E(UHF) =  -108.362102957     A.U. after   10 cycles
            NFock= 10  Conv=0.17D-08     -V/T= 2.0061
 <Sx>= 0.0000 <Sy>= 0.0000 <Sz>= 0.5000 <S**2>= 0.7676 S= 0.5088
 <L.S>= 0.000000000000E+00
 KE= 1.077048638565D+02 PE=-2.941534550832D+02 EE= 5.515407187184D+01
 Annihilation of the first spin contaminant:
 S**2 before annihilation     0.7676,   after     0.7501
 Leave Link  502 at Wed Mar 25 13:22:20 2026, MaxMem=    33554432 cpu:         0.0
 (Enter /opt/g09/g09/l801.exe)
 ExpMin= 2.12D-01 ExpMax= 4.17D+03 ExpMxC= 6.27D+02 IAcc=3 IRadAn=         5 AccDes= 0.00D+00
 HarFok:  IExCor=  205 AccDes= 0.00D+00 IRadAn=         5 IDoV=-2 UseB2=F ITyADJ=14
 ICtDFT= 12500011 ScaDFX=  1.000000  1.000000  1.000000  1.000000
 Largest valence mixing into a core orbital is  1.44D-04
 Largest core mixing into a valence orbital is  3.65D-05
 Largest valence mixing into a core orbital is  1.78D-04
 Largest core mixing into a valence orbital is  5.93D-05
 Range of M.O.s used for correlation:     3    30
 NBasis=    30 NAE=     7 NBE=     6 NFC=     2 NFV=     0
 NROrb=     28 NOA=     5 NOB=     4 NVA=    23 NVB=    24
 Leave Link  801 at Wed Mar 25 13:22:20 2026, MaxMem=    33554432 cpu:         0.0
 (Enter /opt/g09/g09/l906.exe)
 FulOut=F Deriv=F AODrv=F NAtomX=     2
   MMem=        3583  MDisk=           5 MDiskD=           5
  W3Min=        7200 MinDsk=       60545 NBas6D=          30
 NBas2D=         519    NTT=         465    LW2=     2000000
    MDV=    33541929 MDiskM=       14602 NBas2p=         294
 Fully in-core method, ICMem=     6293061.
 IMap=   1   2   3   4   5
 JobTyp=2 Pass  1 fully in-core, NPsUse=  1.
 Compute canonical integrals.
 FoFCou: FMM=F IPFlag=           0 FMFlag=           0 FMFlg1=           0
         NFxFlg=           0 DoJE=F BraDBF=F KetDBF=F FulRan=T
         wScrn=  0.000000 ICntrl=     600 IOpCl=  1 I1Cent=           0 NGrid=           0
         NMat0=    1 NMatS0=    519 NMatT0=    0 NMatD0=    1 NMtDS0=    0 NMtDT0=    0
 Symmetry not used in FoFCou.
 IMap=   1   2   3   4
 JobTyp=3 Pass  1 fully in-core, NPsUse=  1.
 Compute canonical integrals.
 Spin components of T(2) and E(2):
     alpha-alpha T2 =       0.1657810786D-01 E2=     -0.4490597052D-01
     alpha-beta  T2 =       0.1065867233D+00 E2=     -0.2489146659D+00
     beta-beta   T2 =       0.2436021334D-01 E2=     -0.4865361199D-01
 The integrals were generated   2 times.
 (S**2,0)=  0.76761D+00           (S**2,1)=  0.75189D+00
 E(PUHF)=      -0.10836847732D+03        E(PMP2)=      -0.10870811131D+03
 ANorm=    0.1071225954D+01
 E2 =    -0.3424742485D+00 EUMP2 =    -0.10870457720564D+03
 Leave Link  906 at Wed Mar 25 13:22:21 2026, MaxMem=    33554432 cpu:         0.1
 (Enter /opt/g09/g09/l601.exe)
 Copying SCF densities to generalized density rwf, IOpCl= 1 IROHF=0.

 **********************************************************************

            Population analysis using the SCF density.

 **********************************************************************

 Orbital symmetries:
 Alpha Orbitals:
       Occupied  (SGG) (SGU) (SGG) (SGU) (SGG) (PIU) (PIU)
       Virtual   (PIG) (PIG) (SGU) (SGG) (SGG) (PIU) (PIU) (SGU)
                 (PIG) (PIG) (SGU) (DLTG) (DLTG) (PIU) (PIU) (DLTU)
                 (DLTU) (SGG) (PIG) (PIG) (SGU) (SGG) (SGU)
 Beta  Orbitals:
       Occupied  (SGG) (SGU) (SGG) (SGU) (PIU) (PIU)
       Virtual   (SGG) (PIG) (PIG) (SGU) (SGG) (PIU) (PIU) (SGG)
                 (PIG) (PIG) (SGU) (SGU) (DLTG) (DLTG) (PIU) (PIU)
                 (DLTU) (DLTU) (SGG) (PIG) (PIG) (SGU) (SGG) (SGU)
 The electronic state is 2-SGG.
 Alpha  occ. eigenvalues --  -16.21443 -16.21140  -1.91405  -1.28154  -1.14282
 Alpha  occ. eigenvalues --   -1.02931  -1.02931
 Alpha virt. eigenvalues --   -0.26740  -0.26740   0.22768   0.42430   0.45194
 Alpha virt. eigenvalues --    0.47586   0.47586   0.56582   0.63017   0.63017
 Alpha virt. eigenvalues --    1.08569   1.31692   1.31692   1.36510   1.36510
 Alpha virt. eigenvalues --    1.82218   1.82218   2.25492   2.45902   2.45902
 Alpha virt. eigenvalues --    2.68178   3.23014   3.51874
  Beta  occ. eigenvalues --  -16.19475 -16.19282  -1.84773  -1.05667  -1.01281
  Beta  occ. eigenvalues --   -1.01281
  Beta virt. eigenvalues --   -0.52145  -0.23627  -0.23627   0.24437   0.45507
  Beta virt. eigenvalues --    0.48515   0.48515   0.52863   0.64048   0.64048
  Beta virt. eigenvalues --    0.70680   1.09068   1.32297   1.32297   1.43170
  Beta virt. eigenvalues --    1.43170   1.83164   1.83164   2.32184   2.50580
  Beta virt. eigenvalues --    2.50580   2.75511   3.25250   3.55638
     Alpha Molecular Orbital Coefficients:
                           1         2         3         4         5
                       (SGG)--O  (SGU)--O  (SGG)--O  (SGU)--O  (SGG)--O
     Eigenvalues --   -16.21443 -16.21140  -1.91405  -1.28154  -1.14282
   1 1   N  1S          0.70338   0.70385  -0.15732  -0.14776  -0.06059
   2        2S          0.01702   0.01716   0.36307   0.38146   0.15873
   3        2PX         0.00000   0.00000   0.00000   0.00000   0.00000
   4        2PY         0.00000   0.00000   0.00000   0.00000   0.00000
   5        2PZ        -0.00095  -0.00145  -0.21685   0.25138   0.49495
   6        3S          0.00029  -0.00041   0.16768   0.45410   0.25837
   7        3PX         0.00000   0.00000   0.00000   0.00000   0.00000
   8        3PY         0.00000   0.00000   0.00000   0.00000   0.00000
   9        3PZ         0.00019   0.00010  -0.03046   0.03270   0.15562
  10        4XX        -0.00281  -0.00276  -0.01382  -0.00469   0.00710
  11        4YY        -0.00281  -0.00276  -0.01382  -0.00469   0.00710
  12        4ZZ        -0.00199  -0.00103   0.03714   0.00261  -0.01323
  13        4XY         0.00000   0.00000   0.00000   0.00000   0.00000
  14        4XZ         0.00000   0.00000   0.00000   0.00000   0.00000
  15        4YZ         0.00000   0.00000   0.00000   0.00000   0.00000
  16 2   N  1S          0.70338  -0.70385  -0.15732   0.14776  -0.06059
  17        2S          0.01702  -0.01716   0.36307  -0.38146   0.15873
  18        2PX         0.00000   0.00000   0.00000   0.00000   0.00000
  19        2PY         0.00000   0.00000   0.00000   0.00000   0.00000
  20        2PZ         0.00095  -0.00145   0.21685   0.25138  -0.49495
  21        3S          0.00029   0.00041   0.16768  -0.45410   0.25837
  22        3PX         0.00000   0.00000   0.00000   0.00000   0.00000
  23        3PY         0.00000   0.00000   0.00000   0.00000   0.00000
  24        3PZ        -0.00019   0.00010   0.03046   0.03270  -0.15562
  25        4XX        -0.00281   0.00276  -0.01382   0.00469   0.00710
  26        4YY        -0.00281   0.00276  -0.01382   0.00469   0.00710
  27        4ZZ        -0.00199   0.00103   0.03714  -0.00261  -0.01323
  28        4XY         0.00000   0.00000   0.00000   0.00000   0.00000
  29        4XZ         0.00000   0.00000   0.00000   0.00000   0.00000
  30        4YZ         0.00000   0.00000   0.00000   0.00000   0.00000
                           6         7         8         9        10
                       (PIU)--O  (PIU)--O  (PIG)--V  (PIG)--V  (SGU)--V
     Eigenvalues --    -1.02931  -1.02931  -0.26740  -0.26740   0.22768
   1 1   N  1S          0.00000   0.00000   0.00000   0.00000  -0.09946
   2        2S          0.00000   0.00000   0.00000   0.00000   0.24376
   3        2PX         0.47307   0.00000   0.49965   0.00000   0.00000
   4        2PY         0.00000   0.47307   0.00000   0.49965   0.00000
   5        2PZ         0.00000   0.00000   0.00000   0.00000  -0.15969
   6        3S          0.00000   0.00000   0.00000   0.00000   3.47036
   7        3PX         0.21670   0.00000   0.53932   0.00000   0.00000
   8        3PY         0.00000   0.21670   0.00000   0.53932   0.00000
   9        3PZ         0.00000   0.00000   0.00000   0.00000  -2.41156
  10        4XX         0.00000   0.00000   0.00000   0.00000   0.00688
  11        4YY         0.00000   0.00000   0.00000   0.00000   0.00688
  12        4ZZ         0.00000   0.00000   0.00000   0.00000   0.02405
  13        4XY         0.00000   0.00000   0.00000   0.00000   0.00000
  14        4XZ        -0.04614   0.00000   0.03078   0.00000   0.00000
  15        4YZ         0.00000  -0.04614   0.00000   0.03078   0.00000
  16 2   N  1S          0.00000   0.00000   0.00000   0.00000   0.09946
  17        2S          0.00000   0.00000   0.00000   0.00000  -0.24376
  18        2PX         0.47307   0.00000  -0.49965   0.00000   0.00000
  19        2PY         0.00000   0.47307   0.00000  -0.49965   0.00000
  20        2PZ         0.00000   0.00000   0.00000   0.00000  -0.15969
  21        3S          0.00000   0.00000   0.00000   0.00000  -3.47036
  22        3PX         0.21670   0.00000  -0.53932   0.00000   0.00000
  23        3PY         0.00000   0.21670   0.00000  -0.53932   0.00000
  24        3PZ         0.00000   0.00000   0.00000   0.00000  -2.41156
  25        4XX         0.00000   0.00000   0.00000   0.00000  -0.00688
  26        4YY         0.00000   0.00000   0.00000   0.00000  -0.00688
  27        4ZZ         0.00000   0.00000   0.00000   0.00000  -0.02405
  28        4XY         0.00000   0.00000   0.00000   0.00000   0.00000
  29        4XZ         0.04614   0.00000   0.03078   0.00000   0.00000
  30        4YZ         0.00000   0.04614   0.00000   0.03078   0.00000
                          11        12        13        14        15
                       (SGG)--V  (SGG)--V  (PIU)--V  (PIU)--V  (SGU)--V
     Eigenvalues --     0.42430   0.45194   0.47586   0.47586   0.56582
   1 1   N  1S          0.02879   0.01081   0.00000   0.00000  -0.06878
   2        2S          0.60655  -0.58309   0.00000   0.00000  -0.22205
   3        2PX         0.00000   0.00000  -0.61696   0.00000   0.00000
   4        2PY         0.00000   0.00000   0.00000  -0.61696   0.00000
   5        2PZ        -0.26145  -0.42281   0.00000   0.00000  -0.68801
   6        3S         -0.57324   0.94615   0.00000   0.00000   0.87942
   7        3PX         0.00000   0.00000   0.63566   0.00000   0.00000
   8        3PY         0.00000   0.00000   0.00000   0.63566   0.00000
   9        3PZ         0.73536   0.60767   0.00000   0.00000   0.24996
  10        4XX         0.07375  -0.12529   0.00000   0.00000  -0.00377
  11        4YY         0.07375  -0.12529   0.00000   0.00000  -0.00377
  12        4ZZ         0.21414  -0.12394   0.00000   0.00000  -0.33067
  13        4XY         0.00000   0.00000   0.00000   0.00000   0.00000
  14        4XZ         0.00000   0.00000   0.09489   0.00000   0.00000
  15        4YZ         0.00000   0.00000   0.00000   0.09489   0.00000
  16 2   N  1S          0.02879   0.01081   0.00000   0.00000   0.06878
  17        2S          0.60655  -0.58309   0.00000   0.00000   0.22205
  18        2PX         0.00000   0.00000  -0.61696   0.00000   0.00000
  19        2PY         0.00000   0.00000   0.00000  -0.61696   0.00000
  20        2PZ         0.26145   0.42281   0.00000   0.00000  -0.68801
  21        3S         -0.57324   0.94615   0.00000   0.00000  -0.87942
  22        3PX         0.00000   0.00000   0.63566   0.00000   0.00000
  23        3PY         0.00000   0.00000   0.00000   0.63566   0.00000
  24        3PZ        -0.73536  -0.60767   0.00000   0.00000   0.24996
  25        4XX         0.07375  -0.12529   0.00000   0.00000   0.00377
  26        4YY         0.07375  -0.12529   0.00000   0.00000   0.00377
  27        4ZZ         0.21414  -0.12394   0.00000   0.00000   0.33067
  28        4XY         0.00000   0.00000   0.00000   0.00000   0.00000
  29        4XZ         0.00000   0.00000  -0.09489   0.00000   0.00000
  30        4YZ         0.00000   0.00000   0.00000  -0.09489   0.00000
                          16        17        18        19        20
                       (PIG)--V  (PIG)--V  (SGU)--V  (DLTG)--  (DLTG)--
     Eigenvalues --     0.63017   0.63017   1.08569   1.31692   1.31692
   1 1   N  1S          0.00000   0.00000  -0.03059   0.00000   0.00000
   2        2S          0.00000   0.00000  -1.25440   0.00000   0.00000
   3        2PX        -0.68339   0.00000   0.00000   0.00000   0.00000
   4        2PY         0.00000  -0.68339   0.00000   0.00000   0.00000
   5        2PZ         0.00000   0.00000   0.27649   0.00000   0.00000
   6        3S          0.00000   0.00000   6.60667   0.00000   0.00000
   7        3PX         1.20090   0.00000   0.00000   0.00000   0.00000
   8        3PY         0.00000   1.20090   0.00000   0.00000   0.00000
   9        3PZ         0.00000   0.00000  -3.04688   0.00000   0.00000
  10        4XX         0.00000   0.00000  -0.23086   0.00000   0.56832
  11        4YY         0.00000   0.00000  -0.23086   0.00000  -0.56832
  12        4ZZ         0.00000   0.00000  -0.00190   0.00000   0.00000
  13        4XY         0.00000   0.00000   0.00000   0.65624   0.00000
  14        4XZ        -0.04977   0.00000   0.00000   0.00000   0.00000
  15        4YZ         0.00000  -0.04977   0.00000   0.00000   0.00000
  16 2   N  1S          0.00000   0.00000   0.03059   0.00000   0.00000
  17        2S          0.00000   0.00000   1.25440   0.00000   0.00000
  18        2PX         0.68339   0.00000   0.00000   0.00000   0.00000
  19        2PY         0.00000   0.68339   0.00000   0.00000   0.00000
  20        2PZ         0.00000   0.00000   0.27649   0.00000   0.00000
  21        3S          0.00000   0.00000  -6.60667   0.00000   0.00000
  22        3PX        -1.20090   0.00000   0.00000   0.00000   0.00000
  23        3PY         0.00000  -1.20090   0.00000   0.00000   0.00000
  24        3PZ         0.00000   0.00000  -3.04688   0.00000   0.00000
  25        4XX         0.00000   0.00000   0.23086   0.00000   0.56832
  26        4YY         0.00000   0.00000   0.23086   0.00000  -0.56832
  27        4ZZ         0.00000   0.00000   0.00190   0.00000   0.00000
  28        4XY         0.00000   0.00000   0.00000   0.65624   0.00000
  29        4XZ        -0.04977   0.00000   0.00000   0.00000   0.00000
  30        4YZ         0.00000  -0.04977   0.00000   0.00000   0.00000
                          21        22        23        24        25
                       (PIU)--V  (PIU)--V  (DLTU)--  (DLTU)--  (SGG)--V
     Eigenvalues --     1.36510   1.36510   1.82218   1.82218   2.25492
   1 1   N  1S          0.00000   0.00000   0.00000   0.00000   0.11041
   2        2S          0.00000   0.00000   0.00000   0.00000   0.37278
   3        2PX         0.00000   0.26833   0.00000   0.00000   0.00000
   4        2PY         0.26833   0.00000   0.00000   0.00000   0.00000
   5        2PZ         0.00000   0.00000   0.00000   0.00000  -0.34959
   6        3S          0.00000   0.00000   0.00000   0.00000  -0.51577
   7        3PX         0.00000  -0.06221   0.00000   0.00000   0.00000
   8        3PY        -0.06221   0.00000   0.00000   0.00000   0.00000
   9        3PZ         0.00000   0.00000   0.00000   0.00000   0.55304
  10        4XX         0.00000   0.00000   0.66856   0.00000   0.64445
  11        4YY         0.00000   0.00000  -0.66856   0.00000   0.64445
  12        4ZZ         0.00000   0.00000   0.00000   0.00000  -0.56157
  13        4XY         0.00000   0.00000   0.00000   0.77199   0.00000
  14        4XZ         0.00000   0.59694   0.00000   0.00000   0.00000
  15        4YZ         0.59694   0.00000   0.00000   0.00000   0.00000
  16 2   N  1S          0.00000   0.00000   0.00000   0.00000   0.11041
  17        2S          0.00000   0.00000   0.00000   0.00000   0.37278
  18        2PX         0.00000   0.26833   0.00000   0.00000   0.00000
  19        2PY         0.26833   0.00000   0.00000   0.00000   0.00000
  20        2PZ         0.00000   0.00000   0.00000   0.00000   0.34959
  21        3S          0.00000   0.00000   0.00000   0.00000  -0.51577
  22        3PX         0.00000  -0.06221   0.00000   0.00000   0.00000
  23        3PY        -0.06221   0.00000   0.00000   0.00000   0.00000
  24        3PZ         0.00000   0.00000   0.00000   0.00000  -0.55304
  25        4XX         0.00000   0.00000  -0.66856   0.00000   0.64445
  26        4YY         0.00000   0.00000   0.66856   0.00000   0.64445
  27        4ZZ         0.00000   0.00000   0.00000   0.00000  -0.56157
  28        4XY         0.00000   0.00000   0.00000  -0.77199   0.00000
  29        4XZ         0.00000  -0.59694   0.00000   0.00000   0.00000
  30        4YZ        -0.59694   0.00000   0.00000   0.00000   0.00000
                          26        27        28        29        30
                       (PIG)--V  (PIG)--V  (SGU)--V  (SGG)--V  (SGU)--V
     Eigenvalues --     2.45902   2.45902   2.68178   3.23014   3.51874
   1 1   N  1S          0.00000   0.00000  -0.00247  -0.25199  -0.34374
   2        2S          0.00000   0.00000   0.32268   1.24354   0.59153
   3        2PX        -0.21529   0.00000   0.00000   0.00000   0.00000
   4        2PY         0.00000  -0.21529   0.00000   0.00000   0.00000
   5        2PZ         0.00000   0.00000  -1.04326  -0.13733   0.37632
   6        3S          0.00000   0.00000   3.08701   0.83601   3.79098
   7        3PX        -0.46504   0.00000   0.00000   0.00000   0.00000
   8        3PY         0.00000  -0.46504   0.00000   0.00000   0.00000
   9        3PZ         0.00000   0.00000  -1.69977   0.03950  -1.19304
  10        4XX         0.00000   0.00000  -0.47483  -0.81984  -1.08544
  11        4YY         0.00000   0.00000  -0.47483  -0.81984  -1.08544
  12        4ZZ         0.00000   0.00000   1.36339  -1.05228  -1.17133
  13        4XY         0.00000   0.00000   0.00000   0.00000   0.00000
  14        4XZ         1.08050   0.00000   0.00000   0.00000   0.00000
  15        4YZ         0.00000   1.08050   0.00000   0.00000   0.00000
  16 2   N  1S          0.00000   0.00000   0.00247  -0.25199   0.34374
  17        2S          0.00000   0.00000  -0.32268   1.24354  -0.59153
  18        2PX         0.21529   0.00000   0.00000   0.00000   0.00000
  19        2PY         0.00000   0.21529   0.00000   0.00000   0.00000
  20        2PZ         0.00000   0.00000  -1.04326   0.13733   0.37632
  21        3S          0.00000   0.00000  -3.08701   0.83601  -3.79098
  22        3PX         0.46504   0.00000   0.00000   0.00000   0.00000
  23        3PY         0.00000   0.46504   0.00000   0.00000   0.00000
  24        3PZ         0.00000   0.00000  -1.69977  -0.03950  -1.19304
  25        4XX         0.00000   0.00000   0.47483  -0.81984   1.08544
  26        4YY         0.00000   0.00000   0.47483  -0.81984   1.08544
  27        4ZZ         0.00000   0.00000  -1.36339  -1.05228   1.17133
  28        4XY         0.00000   0.00000   0.00000   0.00000   0.00000
  29        4XZ         1.08050   0.00000   0.00000   0.00000   0.00000
  30        4YZ         0.00000   1.08050   0.00000   0.00000   0.00000
     Beta Molecular Orbital Coefficients:
                           1         2         3         4         5
                       (SGG)--O  (SGU)--O  (SGG)--O  (SGU)--O  (PIU)--O
     Eigenvalues --   -16.19475 -16.19282  -1.84773  -1.05667  -1.01281
   1 1   N  1S          0.70383   0.70424  -0.15778  -0.15616   0.00000
   2        2S          0.01559   0.01556   0.36209   0.37942   0.00000
   3        2PX         0.00000   0.00000   0.00000   0.00000   0.00000
   4        2PY         0.00000   0.00000   0.00000   0.00000   0.46608
   5        2PZ        -0.00102  -0.00165  -0.19654   0.15874   0.00000
   6        3S         -0.00012  -0.00322   0.18329   0.61009   0.00000
   7        3PX         0.00000   0.00000   0.00000   0.00000   0.00000
   8        3PY         0.00000   0.00000   0.00000   0.00000   0.22068
   9        3PZ         0.00031   0.00129  -0.03519  -0.01296   0.00000
  10        4XX        -0.00197  -0.00189  -0.00642   0.00706   0.00000
  11        4YY        -0.00197  -0.00189  -0.00642   0.00706   0.00000
  12        4ZZ        -0.00229  -0.00130   0.02110  -0.03042   0.00000
  13        4XY         0.00000   0.00000   0.00000   0.00000   0.00000
  14        4XZ         0.00000   0.00000   0.00000   0.00000   0.00000
  15        4YZ         0.00000   0.00000   0.00000   0.00000  -0.05441
  16 2   N  1S          0.70383  -0.70424  -0.15778   0.15616   0.00000
  17        2S          0.01559  -0.01556   0.36209  -0.37942   0.00000
  18        2PX         0.00000   0.00000   0.00000   0.00000   0.00000
  19        2PY         0.00000   0.00000   0.00000   0.00000   0.46608
  20        2PZ         0.00102  -0.00165   0.19654   0.15874   0.00000
  21        3S         -0.00012   0.00322   0.18329  -0.61009   0.00000
  22        3PX         0.00000   0.00000   0.00000   0.00000   0.00000
  23        3PY         0.00000   0.00000   0.00000   0.00000   0.22068
  24        3PZ        -0.00031   0.00129   0.03519  -0.01296   0.00000
  25        4XX        -0.00197   0.00189  -0.00642  -0.00706   0.00000
  26        4YY        -0.00197   0.00189  -0.00642  -0.00706   0.00000
  27        4ZZ        -0.00229   0.00130   0.02110   0.03042   0.00000
  28        4XY         0.00000   0.00000   0.00000   0.00000   0.00000
  29        4XZ         0.00000   0.00000   0.00000   0.00000   0.00000
  30        4YZ         0.00000   0.00000   0.00000   0.00000   0.05441
                           6         7         8         9        10
                       (PIU)--O  (SGG)--V  (PIG)--V  (PIG)--V  (SGU)--V
     Eigenvalues --    -1.01281  -0.52145  -0.23627  -0.23627   0.24437
   1 1   N  1S          0.00000  -0.05015   0.00000   0.00000  -0.08781
   2        2S          0.00000   0.07922   0.00000   0.00000   0.23321
   3        2PX         0.46608   0.00000   0.49619   0.00000   0.00000
   4        2PY         0.00000   0.00000   0.00000   0.49619   0.00000
   5        2PZ         0.00000   0.44132   0.00000   0.00000  -0.14296
   6        3S          0.00000   0.35061   0.00000   0.00000   3.41584
   7        3PX         0.22068   0.00000   0.55854   0.00000   0.00000
   8        3PY         0.00000   0.00000   0.00000   0.55854   0.00000
   9        3PZ         0.00000   0.24172   0.00000   0.00000  -2.43140
  10        4XX         0.00000   0.00514   0.00000   0.00000   0.00705
  11        4YY         0.00000   0.00514   0.00000   0.00000   0.00705
  12        4ZZ         0.00000  -0.03376   0.00000   0.00000   0.04977
  13        4XY         0.00000   0.00000   0.00000   0.00000   0.00000
  14        4XZ        -0.05441   0.00000   0.01315   0.00000   0.00000
  15        4YZ         0.00000   0.00000   0.00000   0.01315   0.00000
  16 2   N  1S          0.00000  -0.05015   0.00000   0.00000   0.08781
  17        2S          0.00000   0.07922   0.00000   0.00000  -0.23321
  18        2PX         0.46608   0.00000  -0.49619   0.00000   0.00000
  19        2PY         0.00000   0.00000   0.00000  -0.49619   0.00000
  20        2PZ         0.00000  -0.44132   0.00000   0.00000  -0.14296
  21        3S          0.00000   0.35061   0.00000   0.00000  -3.41584
  22        3PX         0.22068   0.00000  -0.55854   0.00000   0.00000
  23        3PY         0.00000   0.00000   0.00000  -0.55854   0.00000
  24        3PZ         0.00000  -0.24172   0.00000   0.00000  -2.43140
  25        4XX         0.00000   0.00514   0.00000   0.00000  -0.00705
  26        4YY         0.00000   0.00514   0.00000   0.00000  -0.00705
  27        4ZZ         0.00000  -0.03376   0.00000   0.00000  -0.04977
  28        4XY         0.00000   0.00000   0.00000   0.00000   0.00000
  29        4XZ         0.05441   0.00000   0.01315   0.00000   0.00000
  30        4YZ         0.00000   0.00000   0.00000   0.01315   0.00000
                          11        12        13        14        15
                       (SGG)--V  (PIU)--V  (PIU)--V  (SGG)--V  (PIG)--V
     Eigenvalues --     0.45507   0.48515   0.48515   0.52863   0.64048
   1 1   N  1S          0.02543   0.00000   0.00000   0.01582   0.00000
   2        2S          0.68615   0.00000   0.00000  -0.52258   0.00000
   3        2PX         0.00000   0.00000  -0.62010   0.00000   0.00000
   4        2PY         0.00000  -0.62010   0.00000   0.00000  -0.68929
   5        2PZ        -0.22574   0.00000   0.00000  -0.50268   0.00000
   6        3S         -0.67112   0.00000   0.00000   0.85826   0.00000
   7        3PX         0.00000   0.00000   0.63477   0.00000   0.00000
   8        3PY         0.00000   0.63477   0.00000   0.00000   1.19331
   9        3PZ         0.68053   0.00000   0.00000   0.65063   0.00000
  10        4XX         0.09768   0.00000   0.00000  -0.13231   0.00000
  11        4YY         0.09768   0.00000   0.00000  -0.13231   0.00000
  12        4ZZ         0.21039   0.00000   0.00000  -0.09953   0.00000
  13        4XY         0.00000   0.00000   0.00000   0.00000   0.00000
  14        4XZ         0.00000   0.00000   0.09329   0.00000   0.00000
  15        4YZ         0.00000   0.09329   0.00000   0.00000  -0.04498
  16 2   N  1S          0.02543   0.00000   0.00000   0.01582   0.00000
  17        2S          0.68615   0.00000   0.00000  -0.52258   0.00000
  18        2PX         0.00000   0.00000  -0.62010   0.00000   0.00000
  19        2PY         0.00000  -0.62010   0.00000   0.00000   0.68929
  20        2PZ         0.22574   0.00000   0.00000   0.50268   0.00000
  21        3S         -0.67112   0.00000   0.00000   0.85826   0.00000
  22        3PX         0.00000   0.00000   0.63477   0.00000   0.00000
  23        3PY         0.00000   0.63477   0.00000   0.00000  -1.19331
  24        3PZ        -0.68053   0.00000   0.00000  -0.65063   0.00000
  25        4XX         0.09768   0.00000   0.00000  -0.13231   0.00000
  26        4YY         0.09768   0.00000   0.00000  -0.13231   0.00000
  27        4ZZ         0.21039   0.00000   0.00000  -0.09953   0.00000
  28        4XY         0.00000   0.00000   0.00000   0.00000   0.00000
  29        4XZ         0.00000   0.00000  -0.09329   0.00000   0.00000
  30        4YZ         0.00000  -0.09329   0.00000   0.00000  -0.04498
                          16        17        18        19        20
                       (PIG)--V  (SGU)--V  (SGU)--V  (DLTG)--  (DLTG)--
     Eigenvalues --     0.64048   0.70680   1.09068   1.32297   1.32297
   1 1   N  1S          0.00000  -0.06157  -0.03077   0.00000   0.00000
   2        2S          0.00000  -0.29439  -1.23716   0.00000   0.00000
   3        2PX        -0.68929   0.00000   0.00000   0.00000   0.00000
   4        2PY         0.00000   0.00000   0.00000   0.00000   0.00000
   5        2PZ         0.00000  -0.69582   0.29826   0.00000   0.00000
   6        3S          0.00000   1.24429   6.58929   0.00000   0.00000
   7        3PX         1.19331   0.00000   0.00000   0.00000   0.00000
   8        3PY         0.00000   0.00000   0.00000   0.00000   0.00000
   9        3PZ         0.00000   0.02207  -3.05683   0.00000   0.00000
  10        4XX         0.00000  -0.02280  -0.23365   0.00000   0.56832
  11        4YY         0.00000  -0.02280  -0.23365   0.00000  -0.56832
  12        4ZZ         0.00000  -0.35236   0.01907   0.00000   0.00000
  13        4XY         0.00000   0.00000   0.00000   0.65624   0.00000
  14        4XZ        -0.04498   0.00000   0.00000   0.00000   0.00000
  15        4YZ         0.00000   0.00000   0.00000   0.00000   0.00000
  16 2   N  1S          0.00000   0.06157   0.03077   0.00000   0.00000
  17        2S          0.00000   0.29439   1.23716   0.00000   0.00000
  18        2PX         0.68929   0.00000   0.00000   0.00000   0.00000
  19        2PY         0.00000   0.00000   0.00000   0.00000   0.00000
  20        2PZ         0.00000  -0.69582   0.29826   0.00000   0.00000
  21        3S          0.00000  -1.24429  -6.58929   0.00000   0.00000
  22        3PX        -1.19331   0.00000   0.00000   0.00000   0.00000
  23        3PY         0.00000   0.00000   0.00000   0.00000   0.00000
  24        3PZ         0.00000   0.02207  -3.05683   0.00000   0.00000
  25        4XX         0.00000   0.02280   0.23365   0.00000   0.56832
  26        4YY         0.00000   0.02280   0.23365   0.00000  -0.56832
  27        4ZZ         0.00000   0.35236  -0.01907   0.00000   0.00000
  28        4XY         0.00000   0.00000   0.00000   0.65624   0.00000
  29        4XZ        -0.04498   0.00000   0.00000   0.00000   0.00000
  30        4YZ         0.00000   0.00000   0.00000   0.00000   0.00000
                          21        22        23        24        25
                       (PIU)--V  (PIU)--V  (DLTU)--  (DLTU)--  (SGG)--V
     Eigenvalues --     1.43170   1.43170   1.83164   1.83164   2.32184
   1 1   N  1S          0.00000   0.00000   0.00000   0.00000   0.11325
   2        2S          0.00000   0.00000   0.00000   0.00000   0.34130
   3        2PX         0.00000   0.27328   0.00000   0.00000   0.00000
   4        2PY         0.27328   0.00000   0.00000   0.00000   0.00000
   5        2PZ         0.00000   0.00000   0.00000   0.00000  -0.35480
   6        3S          0.00000   0.00000   0.00000   0.00000  -0.49974
   7        3PX         0.00000  -0.05704   0.00000   0.00000   0.00000
   8        3PY        -0.05704   0.00000   0.00000   0.00000   0.00000
   9        3PZ         0.00000   0.00000   0.00000   0.00000   0.54345
  10        4XX         0.00000   0.00000   0.00000   0.66856   0.64263
  11        4YY         0.00000   0.00000   0.00000  -0.66856   0.64263
  12        4ZZ         0.00000   0.00000   0.00000   0.00000  -0.56553
  13        4XY         0.00000   0.00000   0.77199   0.00000   0.00000
  14        4XZ         0.00000   0.59650   0.00000   0.00000   0.00000
  15        4YZ         0.59650   0.00000   0.00000   0.00000   0.00000
  16 2   N  1S          0.00000   0.00000   0.00000   0.00000   0.11325
  17        2S          0.00000   0.00000   0.00000   0.00000   0.34130
  18        2PX         0.00000   0.27328   0.00000   0.00000   0.00000
  19        2PY         0.27328   0.00000   0.00000   0.00000   0.00000
  20        2PZ         0.00000   0.00000   0.00000   0.00000   0.35480
  21        3S          0.00000   0.00000   0.00000   0.00000  -0.49974
  22        3PX         0.00000  -0.05704   0.00000   0.00000   0.00000
  23        3PY        -0.05704   0.00000   0.00000   0.00000   0.00000
  24        3PZ         0.00000   0.00000   0.00000   0.00000  -0.54345
  25        4XX         0.00000   0.00000   0.00000  -0.66856   0.64263
  26        4YY         0.00000   0.00000   0.00000   0.66856   0.64263
  27        4ZZ         0.00000   0.00000   0.00000   0.00000  -0.56553
  28        4XY         0.00000   0.00000  -0.77199   0.00000   0.00000
  29        4XZ         0.00000  -0.59650   0.00000   0.00000   0.00000
  30        4YZ        -0.59650   0.00000   0.00000   0.00000   0.00000
                          26        27        28        29        30
                       (PIG)--V  (PIG)--V  (SGU)--V  (SGG)--V  (SGU)--V
     Eigenvalues --     2.50580   2.50580   2.75511   3.25250   3.55638
   1 1   N  1S          0.00000   0.00000  -0.01203  -0.25160  -0.34355
   2        2S          0.00000   0.00000   0.34586   1.24601   0.58876
   3        2PX         0.00000  -0.20420   0.00000   0.00000   0.00000
   4        2PY        -0.20420   0.00000   0.00000   0.00000   0.00000
   5        2PZ         0.00000   0.00000  -1.03758  -0.13147   0.41613
   6        3S          0.00000   0.00000   3.14212   0.83087   3.70028
   7        3PX         0.00000  -0.46186   0.00000   0.00000   0.00000
   8        3PY        -0.46186   0.00000   0.00000   0.00000   0.00000
   9        3PZ         0.00000   0.00000  -1.70035   0.03356  -1.15214
  10        4XX         0.00000   0.00000  -0.50398  -0.81778  -1.07136
  11        4YY         0.00000   0.00000  -0.50398  -0.81778  -1.07136
  12        4ZZ         0.00000   0.00000   1.32700  -1.05350  -1.20496
  13        4XY         0.00000   0.00000   0.00000   0.00000   0.00000
  14        4XZ         0.00000   1.08107   0.00000   0.00000   0.00000
  15        4YZ         1.08107   0.00000   0.00000   0.00000   0.00000
  16 2   N  1S          0.00000   0.00000   0.01203  -0.25160   0.34355
  17        2S          0.00000   0.00000  -0.34586   1.24601  -0.58876
  18        2PX         0.00000   0.20420   0.00000   0.00000   0.00000
  19        2PY         0.20420   0.00000   0.00000   0.00000   0.00000
  20        2PZ         0.00000   0.00000  -1.03758   0.13147   0.41613
  21        3S          0.00000   0.00000  -3.14212   0.83087  -3.70028
  22        3PX         0.00000   0.46186   0.00000   0.00000   0.00000
  23        3PY         0.46186   0.00000   0.00000   0.00000   0.00000
  24        3PZ         0.00000   0.00000  -1.70035  -0.03356  -1.15214
  25        4XX         0.00000   0.00000   0.50398  -0.81778   1.07136
  26        4YY         0.00000   0.00000   0.50398  -0.81778   1.07136
  27        4ZZ         0.00000   0.00000  -1.32700  -1.05350   1.20496
  28        4XY         0.00000   0.00000   0.00000   0.00000   0.00000
  29        4XZ         0.00000   1.08107   0.00000   0.00000   0.00000
  30        4YZ         1.08107   0.00000   0.00000   0.00000   0.00000
     Alpha Density Matrix:
                           1         2         3         4         5
   1 1   N  1S          1.04040
   2        2S         -0.09905   0.30311
   3        2PX         0.00000   0.00000   0.22380
   4        2PY         0.00000   0.00000   0.00000   0.22380
   5        2PZ        -0.03471   0.09568   0.00000   0.00000   0.35520
   6        3S         -0.10922   0.27511   0.00000   0.00000   0.20567
   7        3PX         0.00000   0.00000   0.10251   0.00000   0.00000
   8        3PY         0.00000   0.00000   0.00000   0.10251   0.00000
   9        3PZ        -0.00926   0.02612   0.00000   0.00000   0.09185
  10        4XX        -0.00148  -0.00578   0.00000   0.00000   0.00534
  11        4YY        -0.00148  -0.00578   0.00000   0.00000   0.00534
  12        4ZZ        -0.00755   0.01233   0.00000   0.00000  -0.01394
  13        4XY         0.00000   0.00000   0.00000   0.00000   0.00000
  14        4XZ         0.00000   0.00000  -0.02183   0.00000   0.00000
  15        4YZ         0.00000   0.00000   0.00000  -0.02183   0.00000
  16 2   N  1S          0.00594  -0.01047   0.00000   0.00000   0.04162
  17        2S         -0.01047   0.01150   0.00000   0.00000  -0.09605
  18        2PX         0.00000   0.00000   0.22380   0.00000   0.00000
  19        2PY         0.00000   0.00000   0.00000   0.22380   0.00000
  20        2PZ        -0.04162   0.09605   0.00000   0.00000  -0.22881
  21        3S          0.02556  -0.07132   0.00000   0.00000  -0.02264
  22        3PX         0.00000   0.00000   0.10251   0.00000   0.00000
  23        3PY         0.00000   0.00000   0.00000   0.10251   0.00000
  24        3PZ        -0.00025  -0.00117   0.00000   0.00000  -0.07541
  25        4XX         0.00102  -0.00210   0.00000   0.00000   0.00769
  26        4YY         0.00102  -0.00210   0.00000   0.00000   0.00769
  27        4ZZ        -0.00533   0.01037   0.00000   0.00000  -0.01526
  28        4XY         0.00000   0.00000   0.00000   0.00000   0.00000
  29        4XZ         0.00000   0.00000   0.02183   0.00000   0.00000
  30        4YZ         0.00000   0.00000   0.00000   0.02183   0.00000
                           6         7         8         9        10
   6        3S          0.30108
   7        3PX         0.00000   0.04696
   8        3PY         0.00000   0.00000   0.04696
   9        3PZ         0.04995   0.00000   0.00000   0.02622
  10        4XX        -0.00261   0.00000   0.00000   0.00137   0.00028
  11        4YY        -0.00261   0.00000   0.00000   0.00137   0.00028
  12        4ZZ         0.00399   0.00000   0.00000  -0.00310  -0.00061
  13        4XY         0.00000   0.00000   0.00000   0.00000   0.00000
  14        4XZ         0.00000  -0.01000   0.00000   0.00000   0.00000
  15        4YZ         0.00000   0.00000  -0.01000   0.00000   0.00000
  16 2   N  1S          0.02556   0.00000   0.00000   0.00025   0.00102
  17        2S         -0.07132   0.00000   0.00000   0.00117  -0.00210
  18        2PX         0.00000   0.10251   0.00000   0.00000   0.00000
  19        2PY         0.00000   0.00000   0.10251   0.00000   0.00000
  20        2PZ         0.02264   0.00000   0.00000  -0.07541  -0.00769
  21        3S         -0.11134   0.00000   0.00000   0.02025   0.00164
  22        3PX         0.00000   0.04696   0.00000   0.00000   0.00000
  23        3PY         0.00000   0.00000   0.04696   0.00000   0.00000
  24        3PZ        -0.02025   0.00000   0.00000  -0.02408  -0.00168
  25        4XX         0.00164   0.00000   0.00000   0.00168   0.00022
  26        4YY         0.00164   0.00000   0.00000   0.00168   0.00022
  27        4ZZ         0.00163   0.00000   0.00000  -0.00328  -0.00059
  28        4XY         0.00000   0.00000   0.00000   0.00000   0.00000
  29        4XZ         0.00000   0.01000   0.00000   0.00000   0.00000
  30        4YZ         0.00000   0.00000   0.01000   0.00000   0.00000
                          11        12        13        14        15
  11        4YY         0.00028
  12        4ZZ        -0.00061   0.00157
  13        4XY         0.00000   0.00000   0.00000
  14        4XZ         0.00000   0.00000   0.00000   0.00213
  15        4YZ         0.00000   0.00000   0.00000   0.00000   0.00213
  16 2   N  1S          0.00102  -0.00533   0.00000   0.00000   0.00000
  17        2S         -0.00210   0.01037   0.00000   0.00000   0.00000
  18        2PX         0.00000   0.00000   0.00000  -0.02183   0.00000
  19        2PY         0.00000   0.00000   0.00000   0.00000  -0.02183
  20        2PZ        -0.00769   0.01526   0.00000   0.00000   0.00000
  21        3S          0.00164   0.00163   0.00000   0.00000   0.00000
  22        3PX         0.00000   0.00000   0.00000  -0.01000   0.00000
  23        3PY         0.00000   0.00000   0.00000   0.00000  -0.01000
  24        3PZ        -0.00168   0.00328   0.00000   0.00000   0.00000
  25        4XX         0.00022  -0.00059   0.00000   0.00000   0.00000
  26        4YY         0.00022  -0.00059   0.00000   0.00000   0.00000
  27        4ZZ        -0.00059   0.00155   0.00000   0.00000   0.00000
  28        4XY         0.00000   0.00000   0.00000   0.00000   0.00000
  29        4XZ         0.00000   0.00000   0.00000  -0.00213   0.00000
  30        4YZ         0.00000   0.00000   0.00000   0.00000  -0.00213
                          16        17        18        19        20
  16 2   N  1S          1.04040
  17        2S         -0.09905   0.30311
  18        2PX         0.00000   0.00000   0.22380
  19        2PY         0.00000   0.00000   0.00000   0.22380
  20        2PZ         0.03471  -0.09568   0.00000   0.00000   0.35520
  21        3S         -0.10922   0.27511   0.00000   0.00000  -0.20567
  22        3PX         0.00000   0.00000   0.10251   0.00000   0.00000
  23        3PY         0.00000   0.00000   0.00000   0.10251   0.00000
  24        3PZ         0.00926  -0.02612   0.00000   0.00000   0.09185
  25        4XX        -0.00148  -0.00578   0.00000   0.00000  -0.00534
  26        4YY        -0.00148  -0.00578   0.00000   0.00000  -0.00534
  27        4ZZ        -0.00755   0.01233   0.00000   0.00000   0.01394
  28        4XY         0.00000   0.00000   0.00000   0.00000   0.00000
  29        4XZ         0.00000   0.00000   0.02183   0.00000   0.00000
  30        4YZ         0.00000   0.00000   0.00000   0.02183   0.00000
                          21        22        23        24        25
  21        3S          0.30108
  22        3PX         0.00000   0.04696
  23        3PY         0.00000   0.00000   0.04696
  24        3PZ        -0.04995   0.00000   0.00000   0.02622
  25        4XX        -0.00261   0.00000   0.00000  -0.00137   0.00028
  26        4YY        -0.00261   0.00000   0.00000  -0.00137   0.00028
  27        4ZZ         0.00399   0.00000   0.00000   0.00310  -0.00061
  28        4XY         0.00000   0.00000   0.00000   0.00000   0.00000
  29        4XZ         0.00000   0.01000   0.00000   0.00000   0.00000
  30        4YZ         0.00000   0.00000   0.01000   0.00000   0.00000
                          26        27        28        29        30
  26        4YY         0.00028
  27        4ZZ        -0.00061   0.00157
  28        4XY         0.00000   0.00000   0.00000
  29        4XZ         0.00000   0.00000   0.00000   0.00213
  30        4YZ         0.00000   0.00000   0.00000   0.00000   0.00213
     Beta Density Matrix:
                           1         2         3         4         5
   1 1   N  1S          1.04060
   2        2S         -0.09446   0.27556
   3        2PX         0.00000   0.00000   0.21723
   4        2PY         0.00000   0.00000   0.00000   0.21723
   5        2PZ         0.00434  -0.01098   0.00000   0.00000   0.06383
   6        3S         -0.12654   0.29780   0.00000   0.00000   0.06083
   7        3PX         0.00000   0.00000   0.10285   0.00000   0.00000
   8        3PY         0.00000   0.00000   0.00000   0.10285   0.00000
   9        3PZ         0.00870  -0.01763   0.00000   0.00000   0.00486
  10        4XX        -0.00281   0.00029   0.00000   0.00000   0.00239
  11        4YY        -0.00281   0.00029   0.00000   0.00000   0.00239
  12        4ZZ        -0.00111  -0.00396   0.00000   0.00000  -0.00897
  13        4XY         0.00000   0.00000   0.00000   0.00000   0.00000
  14        4XZ         0.00000   0.00000  -0.02536   0.00000   0.00000
  15        4YZ         0.00000   0.00000   0.00000  -0.02536   0.00000
  16 2   N  1S         -0.00007   0.00213   0.00000   0.00000   0.05624
  17        2S          0.00213  -0.01285   0.00000   0.00000  -0.13139
  18        2PX         0.00000   0.00000   0.21723   0.00000   0.00000
  19        2PY         0.00000   0.00000   0.00000   0.21723   0.00000
  20        2PZ        -0.05624   0.13139   0.00000   0.00000  -0.01343
  21        3S          0.06853  -0.16507   0.00000   0.00000  -0.13288
  22        3PX         0.00000   0.00000   0.10285   0.00000   0.00000
  23        3PY         0.00000   0.00000   0.00000   0.10285   0.00000
  24        3PZ        -0.00284   0.00784   0.00000   0.00000  -0.00897
  25        4XX         0.00206  -0.00501   0.00000   0.00000   0.00014
  26        4YY         0.00206  -0.00501   0.00000   0.00000   0.00014
  27        4ZZ        -0.00878   0.01917   0.00000   0.00000   0.00068
  28        4XY         0.00000   0.00000   0.00000   0.00000   0.00000
  29        4XZ         0.00000   0.00000   0.02536   0.00000   0.00000
  30        4YZ         0.00000   0.00000   0.00000   0.02536   0.00000
                           6         7         8         9        10
   6        3S          0.40581
   7        3PX         0.00000   0.04870
   8        3PY         0.00000   0.00000   0.04870
   9        3PZ        -0.01436   0.00000   0.00000   0.00141
  10        4XX         0.00314   0.00000   0.00000   0.00013   0.00010
  11        4YY         0.00314   0.00000   0.00000   0.00013   0.00010
  12        4ZZ        -0.01469   0.00000   0.00000  -0.00035  -0.00034
  13        4XY         0.00000   0.00000   0.00000   0.00000   0.00000
  14        4XZ         0.00000  -0.01201   0.00000   0.00000   0.00000
  15        4YZ         0.00000   0.00000  -0.01201   0.00000   0.00000
  16 2   N  1S          0.06853   0.00000   0.00000   0.00284   0.00206
  17        2S         -0.16507   0.00000   0.00000  -0.00784  -0.00501
  18        2PX         0.00000   0.10285   0.00000   0.00000   0.00000
  19        2PY         0.00000   0.00000   0.10285   0.00000   0.00000
  20        2PZ         0.13288   0.00000   0.00000  -0.00897  -0.00014
  21        3S         -0.33863   0.00000   0.00000   0.00146  -0.00549
  22        3PX         0.00000   0.04870   0.00000   0.00000   0.00000
  23        3PY         0.00000   0.00000   0.04870   0.00000   0.00000
  24        3PZ        -0.00146   0.00000   0.00000  -0.00107  -0.00032
  25        4XX        -0.00549   0.00000   0.00000   0.00032  -0.00001
  26        4YY        -0.00549   0.00000   0.00000   0.00032  -0.00001
  27        4ZZ         0.02242   0.00000   0.00000  -0.00114   0.00008
  28        4XY         0.00000   0.00000   0.00000   0.00000   0.00000
  29        4XZ         0.00000   0.01201   0.00000   0.00000   0.00000
  30        4YZ         0.00000   0.00000   0.01201   0.00000   0.00000
                          11        12        13        14        15
  11        4YY         0.00010
  12        4ZZ        -0.00034   0.00138
  13        4XY         0.00000   0.00000   0.00000
  14        4XZ         0.00000   0.00000   0.00000   0.00296
  15        4YZ         0.00000   0.00000   0.00000   0.00000   0.00296
  16 2   N  1S          0.00206  -0.00878   0.00000   0.00000   0.00000
  17        2S         -0.00501   0.01917   0.00000   0.00000   0.00000
  18        2PX         0.00000   0.00000   0.00000  -0.02536   0.00000
  19        2PY         0.00000   0.00000   0.00000   0.00000  -0.02536
  20        2PZ        -0.00014  -0.00068   0.00000   0.00000   0.00000
  21        3S         -0.00549   0.02242   0.00000   0.00000   0.00000
  22        3PX         0.00000   0.00000   0.00000  -0.01201   0.00000
  23        3PY         0.00000   0.00000   0.00000   0.00000  -0.01201
  24        3PZ        -0.00032   0.00114   0.00000   0.00000   0.00000
  25        4XX        -0.00001   0.00008   0.00000   0.00000   0.00000
  26        4YY        -0.00001   0.00008   0.00000   0.00000   0.00000
  27        4ZZ         0.00008  -0.00048   0.00000   0.00000   0.00000
  28        4XY         0.00000   0.00000   0.00000   0.00000   0.00000
  29        4XZ         0.00000   0.00000   0.00000  -0.00296   0.00000
  30        4YZ         0.00000   0.00000   0.00000   0.00000  -0.00296
                          16        17        18        19        20
  16 2   N  1S          1.04060
  17        2S         -0.09446   0.27556
  18        2PX         0.00000   0.00000   0.21723
  19        2PY         0.00000   0.00000   0.00000   0.21723
  20        2PZ        -0.00434   0.01098   0.00000   0.00000   0.06383
  21        3S         -0.12654   0.29780   0.00000   0.00000  -0.06083
  22        3PX         0.00000   0.00000   0.10285   0.00000   0.00000
  23        3PY         0.00000   0.00000   0.00000   0.10285   0.00000
  24        3PZ        -0.00870   0.01763   0.00000   0.00000   0.00486
  25        4XX        -0.00281   0.00029   0.00000   0.00000  -0.00239
  26        4YY        -0.00281   0.00029   0.00000   0.00000  -0.00239
  27        4ZZ        -0.00111  -0.00396   0.00000   0.00000   0.00897
  28        4XY         0.00000   0.00000   0.00000   0.00000   0.00000
  29        4XZ         0.00000   0.00000   0.02536   0.00000   0.00000
  30        4YZ         0.00000   0.00000   0.00000   0.02536   0.00000
                          21        22        23        24        25
  21        3S          0.40581
  22        3PX         0.00000   0.04870
  23        3PY         0.00000   0.00000   0.04870
  24        3PZ         0.01436   0.00000   0.00000   0.00141
  25        4XX         0.00314   0.00000   0.00000  -0.00013   0.00010
  26        4YY         0.00314   0.00000   0.00000  -0.00013   0.00010
  27        4ZZ        -0.01469   0.00000   0.00000   0.00035  -0.00034
  28        4XY         0.00000   0.00000   0.00000   0.00000   0.00000
  29        4XZ         0.00000   0.01201   0.00000   0.00000   0.00000
  30        4YZ         0.00000   0.00000   0.01201   0.00000   0.00000
                          26        27        28        29        30
  26        4YY         0.00010
  27        4ZZ        -0.00034   0.00138
  28        4XY         0.00000   0.00000   0.00000
  29        4XZ         0.00000   0.00000   0.00000   0.00296
  30        4YZ         0.00000   0.00000   0.00000   0.00000   0.00296
    Full Mulliken population analysis:
                           1         2         3         4         5
   1 1   N  1S          2.08100
   2        2S         -0.04300   0.57866
   3        2PX         0.00000   0.00000   0.44103
   4        2PY         0.00000   0.00000   0.00000   0.44103
   5        2PZ         0.00000   0.00000   0.00000   0.00000   0.41903
   6        3S         -0.04052   0.44429   0.00000   0.00000   0.00000
   7        3PX         0.00000   0.00000   0.10665   0.00000   0.00000
   8        3PY         0.00000   0.00000   0.00000   0.10665   0.00000
   9        3PZ         0.00000   0.00000   0.00000   0.00000   0.05022
  10        4XX        -0.00022  -0.00349   0.00000   0.00000   0.00000
  11        4YY        -0.00022  -0.00349   0.00000   0.00000   0.00000
  12        4ZZ        -0.00044   0.00532   0.00000   0.00000   0.00000
  13        4XY         0.00000   0.00000   0.00000   0.00000   0.00000
  14        4XZ         0.00000   0.00000   0.00000   0.00000   0.00000
  15        4YZ         0.00000   0.00000   0.00000   0.00000   0.00000
  16 2   N  1S          0.00000  -0.00017   0.00000   0.00000  -0.00421
  17        2S         -0.00017  -0.00027   0.00000   0.00000   0.06381
  18        2PX         0.00000   0.00000   0.05043   0.00000   0.00000
  19        2PY         0.00000   0.00000   0.00000   0.05043   0.00000
  20        2PZ        -0.00421   0.06381   0.00000   0.00000   0.08009
  21        3S          0.00634  -0.08698   0.00000   0.00000   0.03657
  22        3PX         0.00000   0.00000   0.04908   0.00000   0.00000
  23        3PY         0.00000   0.00000   0.00000   0.04908   0.00000
  24        3PZ        -0.00040   0.00372   0.00000   0.00000   0.01109
  25        4XX         0.00001  -0.00078   0.00000   0.00000  -0.00113
  26        4YY         0.00001  -0.00078   0.00000   0.00000  -0.00113
  27        4ZZ        -0.00152   0.01327   0.00000   0.00000   0.00637
  28        4XY         0.00000   0.00000   0.00000   0.00000   0.00000
  29        4XZ         0.00000   0.00000   0.01270   0.00000   0.00000
  30        4YZ         0.00000   0.00000   0.00000   0.01270   0.00000
                           6         7         8         9        10
   6        3S          0.70689
   7        3PX         0.00000   0.09566
   8        3PY         0.00000   0.00000   0.09566
   9        3PZ         0.00000   0.00000   0.00000   0.02762
  10        4XX         0.00035   0.00000   0.00000   0.00000   0.00038
  11        4YY         0.00035   0.00000   0.00000   0.00000   0.00013
  12        4ZZ        -0.00717   0.00000   0.00000   0.00000  -0.00032
  13        4XY         0.00000   0.00000   0.00000   0.00000   0.00000
  14        4XZ         0.00000   0.00000   0.00000   0.00000   0.00000
  15        4YZ         0.00000   0.00000   0.00000   0.00000   0.00000
  16 2   N  1S          0.00634   0.00000   0.00000  -0.00040   0.00001
  17        2S         -0.08698   0.00000   0.00000   0.00372  -0.00078
  18        2PX         0.00000   0.04908   0.00000   0.00000   0.00000
  19        2PY         0.00000   0.00000   0.04908   0.00000   0.00000
  20        2PZ         0.03657   0.00000   0.00000   0.01109  -0.00113
  21        3S         -0.27732   0.00000   0.00000  -0.01317  -0.00120
  22        3PX         0.00000   0.05895   0.00000   0.00000   0.00000
  23        3PY         0.00000   0.00000   0.05895   0.00000   0.00000
  24        3PZ        -0.01317   0.00000   0.00000  -0.00050  -0.00097
  25        4XX        -0.00120   0.00000   0.00000  -0.00097   0.00003
  26        4YY        -0.00120   0.00000   0.00000  -0.00097   0.00001
  27        4ZZ         0.01054   0.00000   0.00000   0.00187  -0.00013
  28        4XY         0.00000   0.00000   0.00000   0.00000   0.00000
  29        4XZ         0.00000   0.00490   0.00000   0.00000   0.00000
  30        4YZ         0.00000   0.00000   0.00490   0.00000   0.00000
                          11        12        13        14        15
  11        4YY         0.00038
  12        4ZZ        -0.00032   0.00294
  13        4XY         0.00000   0.00000   0.00000
  14        4XZ         0.00000   0.00000   0.00000   0.00509
  15        4YZ         0.00000   0.00000   0.00000   0.00000   0.00509
  16 2   N  1S          0.00001  -0.00152   0.00000   0.00000   0.00000
  17        2S         -0.00078   0.01327   0.00000   0.00000   0.00000
  18        2PX         0.00000   0.00000   0.00000   0.01270   0.00000
  19        2PY         0.00000   0.00000   0.00000   0.00000   0.01270
  20        2PZ        -0.00113   0.00637   0.00000   0.00000   0.00000
  21        3S         -0.00120   0.01054   0.00000   0.00000   0.00000
  22        3PX         0.00000   0.00000   0.00000   0.00490   0.00000
  23        3PY         0.00000   0.00000   0.00000   0.00000   0.00490
  24        3PZ        -0.00097   0.00187   0.00000   0.00000   0.00000
  25        4XX         0.00001  -0.00013   0.00000   0.00000   0.00000
  26        4YY         0.00003  -0.00013   0.00000   0.00000   0.00000
  27        4ZZ        -0.00013   0.00052   0.00000   0.00000   0.00000
  28        4XY         0.00000   0.00000   0.00000   0.00000   0.00000
  29        4XZ         0.00000   0.00000   0.00000   0.00217   0.00000
  30        4YZ         0.00000   0.00000   0.00000   0.00000   0.00217
                          16        17        18        19        20
  16 2   N  1S          2.08100
  17        2S         -0.04300   0.57866
  18        2PX         0.00000   0.00000   0.44103
  19        2PY         0.00000   0.00000   0.00000   0.44103
  20        2PZ         0.00000   0.00000   0.00000   0.00000   0.41903
  21        3S         -0.04052   0.44429   0.00000   0.00000   0.00000
  22        3PX         0.00000   0.00000   0.10665   0.00000   0.00000
  23        3PY         0.00000   0.00000   0.00000   0.10665   0.00000
  24        3PZ         0.00000   0.00000   0.00000   0.00000   0.05022
  25        4XX        -0.00022  -0.00349   0.00000   0.00000   0.00000
  26        4YY        -0.00022  -0.00349   0.00000   0.00000   0.00000
  27        4ZZ        -0.00044   0.00532   0.00000   0.00000   0.00000
  28        4XY         0.00000   0.00000   0.00000   0.00000   0.00000
  29        4XZ         0.00000   0.00000   0.00000   0.00000   0.00000
  30        4YZ         0.00000   0.00000   0.00000   0.00000   0.00000
                          21        22        23        24        25
  21        3S          0.70689
  22        3PX         0.00000   0.09566
  23        3PY         0.00000   0.00000   0.09566
  24        3PZ         0.00000   0.00000   0.00000   0.02762
  25        4XX         0.00035   0.00000   0.00000   0.00000   0.00038
  26        4YY         0.00035   0.00000   0.00000   0.00000   0.00013
  27        4ZZ        -0.00717   0.00000   0.00000   0.00000  -0.00032
  28        4XY         0.00000   0.00000   0.00000   0.00000   0.00000
  29        4XZ         0.00000   0.00000   0.00000   0.00000   0.00000
  30        4YZ         0.00000   0.00000   0.00000   0.00000   0.00000
                          26        27        28        29        30
  26        4YY         0.00038
  27        4ZZ        -0.00032   0.00294
  28        4XY         0.00000   0.00000   0.00000
  29        4XZ         0.00000   0.00000   0.00000   0.00509
  30        4YZ         0.00000   0.00000   0.00000   0.00000   0.00509
     Gross orbital populations:
                         Total     Alpha     Beta      Spin
   1 1   N  1S          1.99668   0.99821   0.99846  -0.00025
   2        2S          0.97012   0.50132   0.46881   0.03251
   3        2PX         0.65989   0.33300   0.32689   0.00611
   4        2PY         0.65989   0.33300   0.32689   0.00611
   5        2PZ         0.66071   0.52339   0.13732   0.38607
   6        3S          0.77778   0.39647   0.38131   0.01516
   7        3PX         0.31524   0.15586   0.15938  -0.00352
   8        3PY         0.31524   0.15586   0.15938  -0.00352
   9        3PZ         0.07853   0.07015   0.00839   0.06176
  10        4XX        -0.00732  -0.00707  -0.00025  -0.00682
  11        4YY        -0.00732  -0.00707  -0.00025  -0.00682
  12        4ZZ         0.03082   0.02461   0.00621   0.01840
  13        4XY         0.00000   0.00000   0.00000   0.00000
  14        4XZ         0.02487   0.01114   0.01373  -0.00258
  15        4YZ         0.02487   0.01114   0.01373  -0.00258
  16 2   N  1S          1.99668   0.99821   0.99846  -0.00025
  17        2S          0.97012   0.50132   0.46881   0.03251
  18        2PX         0.65989   0.33300   0.32689   0.00611
  19        2PY         0.65989   0.33300   0.32689   0.00611
  20        2PZ         0.66071   0.52339   0.13732   0.38607
  21        3S          0.77778   0.39647   0.38131   0.01516
  22        3PX         0.31524   0.15586   0.15938  -0.00352
  23        3PY         0.31524   0.15586   0.15938  -0.00352
  24        3PZ         0.07853   0.07015   0.00839   0.06176
  25        4XX        -0.00732  -0.00707  -0.00025  -0.00682
  26        4YY        -0.00732  -0.00707  -0.00025  -0.00682
  27        4ZZ         0.03082   0.02461   0.00621   0.01840
  28        4XY         0.00000   0.00000   0.00000   0.00000
  29        4XZ         0.02487   0.01114   0.01373  -0.00258
  30        4YZ         0.02487   0.01114   0.01373  -0.00258
          Condensed to atoms (all electrons):
               1          2
     1  N    6.130037   0.369963
     2  N    0.369963   6.130037
          Atomic-Atomic Spin Densities.
               1          2
     1  N    0.319990   0.180010
     2  N    0.180010   0.319990
 Mulliken charges and spin densities:
               1          2
     1  N    0.500000   0.500000
     2  N    0.500000   0.500000
 Sum of Mulliken charges =   1.00000   1.00000
 Mulliken charges and spin densities with hydrogens summed into heavy atoms:
               1          2
     1  N    0.500000   0.500000
     2  N    0.500000   0.500000
 Atomic Valencies and Mayer Atomic Bond Orders:
               1          2
     1  N    2.658984   2.658984
     2  N    2.658984   2.658984
 Lowdin Atomic Charges:
               1
     1  N    0.500000
     2  N    0.500000
 Sum of Lowdin charges  =   1.00000
 Lowdin atomic charges with hydrogens summed into heavy atoms:
               1
     1  N    0.500000
     2  N    0.500000
 Sum of Lowdin charges  =   1.00000
 Dipole moment from Lowdin charges (Debye):
    X=     0.0000    Y=     0.0000    Z=     0.0000  Tot=     0.0000
 Electronic spatial extent (au):  <R**2>=             33.2737
 Charge=              1.0000 electrons
 Dipole moment (field-independent basis, Debye):
    X=              0.0000    Y=              0.0000    Z=              0.0000  Tot=              0.0000
 Quadrupole moment (field-independent basis, Debye-Ang):
   XX=             -8.7298   YY=             -8.7298   ZZ=             -5.8019
   XY=              0.0000   XZ=              0.0000   YZ=              0.0000
 Traceless Quadrupole moment (field-independent basis, Debye-Ang):
   XX=             -0.9760   YY=             -0.9760   ZZ=              1.9519
   XY=              0.0000   XZ=              0.0000   YZ=              0.0000
 Octapole moment (field-independent basis, Debye-Ang**2):
  XXX=              0.0000  YYY=              0.0000  ZZZ=              0.0000  XYY=              0.0000
  XXY=              0.0000  XXZ=              0.0000  XZZ=              0.0000  YZZ=              0.0000
  YYZ=              0.0000  XYZ=              0.0000
 Hexadecapole moment (field-independent basis, Debye-Ang**3):
 XXXX=             -6.5925 YYYY=             -6.5925 ZZZZ=            -19.9658 XXXY=              0.0000
 XXXZ=              0.0000 YYYX=              0.0000 YYYZ=              0.0000 ZZZX=              0.0000
 ZZZY=              0.0000 XXYY=             -2.1975 XXZZ=             -4.5991 YYZZ=             -4.5991
 XXYZ=              0.0000 YYXZ=              0.0000 ZZXY=              0.0000
 N-N= 2.293241639773D+01 E-N=-2.941534550803D+02  KE= 1.077048638565D+02
 Symmetry AG   KE= 5.139990441579D+01
 Symmetry B1G  KE= 1.285981751202D-34
 Symmetry B2G  KE= 5.208925851556D-33
 Symmetry B3G  KE= 7.154994848583D-33
 Symmetry AU   KE= 5.059478292758D-34
 Symmetry B1U  KE= 4.919753161368D+01
 Symmetry B2U  KE= 3.553713913488D+00
 Symmetry B3U  KE= 3.553713913489D+00
 Orbital energies and kinetic energies (alpha):
                                 1                 2
   1 (SGG)--O                -16.214434         22.069920
   2 (SGU)--O                -16.211397         22.100785
   3 (SGG)--O                 -1.914049          2.524876
   4 (SGU)--O                 -1.281536          2.503942
   5 (SGG)--O                 -1.142818          2.253122
   6 (PIU)--O                 -1.029313          1.789515
   7 (PIU)--O                 -1.029313          1.789515
   8 (PIG)--V                 -0.267396          2.060211
   9 (PIG)--V                 -0.267396          2.060211
  10 (SGU)--V                  0.227680          1.691125
  11 (SGG)--V                  0.424300          1.427143
  12 (SGG)--V                  0.451936          1.885184
  13 (PIU)--V                  0.475860          2.247349
  14 (PIU)--V                  0.475860          2.247349
  15 (SGU)--V                  0.565824          3.305476
  16 (PIG)--V                  0.630169          2.667037
  17 (PIG)--V                  0.630169          2.667037
  18 (SGU)--V                  1.085690          2.720724
  19 (DLTG)--V                 1.316923          2.597378
  20 (DLTG)--V                 1.316923          2.597378
  21 (PIU)--V                  1.365096          2.975123
  22 (PIU)--V                  1.365096          2.975123
  23 (DLTU)--V                 1.822178          3.080398
  24 (DLTU)--V                 1.822178          3.080398
  25 (SGG)--V                  2.254917          3.974789
  26 (PIG)--V                  2.459021          3.899025
  27 (PIG)--V                  2.459021          3.899025
  28 (SGU)--V                  2.681779          5.758093
  29 (SGG)--V                  3.230143          8.562879
  30 (SGU)--V                  3.518737          9.453829
 Orbital energies and kinetic energies (beta):
                                 1                 2
   1 (SGG)--O                -16.194745         22.102691
   2 (SGU)--O                -16.192822         22.130791
   3 (SGG)--O                 -1.847728          2.449296
   4 (SGU)--O                 -1.056674          2.462013
   5 (PIU)--O                 -1.012810          1.764198
   6 (PIU)--O                 -1.012810          1.764198
   7 (SGG)--V                 -0.521452          1.885969
   8 (PIG)--V                 -0.236273          2.037056
   9 (PIG)--V                 -0.236273          2.037056
  10 (SGU)--V                  0.244371          1.487790
  11 (SGG)--V                  0.455071          1.454109
  12 (PIU)--V                  0.485155          2.264508
  13 (PIU)--V                  0.485155          2.264508
  14 (SGG)--V                  0.528631          2.216065
  15 (PIG)--V                  0.640479          2.704413
  16 (PIG)--V                  0.640479          2.704413
  17 (SGU)--V                  0.706798          3.410594
  18 (SGU)--V                  1.090680          2.753911
  19 (DLTG)--V                 1.322970          2.597378
  20 (DLTG)--V                 1.322970          2.597378
  21 (PIU)--V                  1.431698          2.983281
  22 (PIU)--V                  1.431698          2.983281
  23 (DLTU)--V                 1.831636          3.080398
  24 (DLTU)--V                 1.831636          3.080398
  25 (SGG)--V                  2.321838          4.026907
  26 (PIG)--V                  2.505805          3.884804
  27 (PIG)--V                  2.505805          3.884804
  28 (SGU)--V                  2.755111          5.787889
  29 (SGG)--V                  3.252504          8.562875
  30 (SGU)--V                  3.556385          9.500983
 Total kinetic energy from orbitals= 1.077048638565D+02
 Leave Link  601 at Wed Mar 25 13:22:21 2026, MaxMem=    33554432 cpu:         0.0
 (Enter /opt/g09/g09/l9999.exe)

 Test job not archived.
 1\1\GINC-KADET27\SP\UMP2-FC\6-31G(d)\N2(1+,2)\MDOROHUN\25-Mar-2026\4\\
 #P MP2/6-31G(d) guess=(read,alter) GFInput Pop=Full IOP(6/80=1)\\n2 en
 ergia jonu w stanie Sigma MP2\\1,2\N\N,1,1.1307\\\5,7\\Version=ES64L-G
 09RevD.01\State=2-SGG\HF=-108.362103\MP2=-108.7045772\PUHF=-108.368477
 3\PMP2-0=-108.7081113\S2=0.76761\S2-1=0.75189\S2A=0.75005\RMSD=1.714e-
 09\PG=D*H [C*(N1.N1)]\\@


 RESEARCH IS WHAT I AM DOING WHEN I DON'T KNOW WHAT I AM DOING.
     -- WERNER VON BRAUN
 Job cpu time:       0 days  0 hours  0 minutes  0.4 seconds.
 File lengths (MBytes):  RWF=      5 Int=      0 D2E=      0 Chk=      2 Scr=      1
 Normal termination of Gaussian 09 at Wed Mar 25 13:22:21 2026.
