 Entering Gaussian System, Link 0=/opt/g09/g09/g09
 Input=C.inp
 Output=C.log
 Initial command:
 /opt/g09/g09/l1.exe "/tmp/Gau-13063.inp" -scrdir="/tmp/"
 Entering Link 1 = /opt/g09/g09/l1.exe PID=     13065.
  
 Copyright (c) 1988,1990,1992,1993,1995,1998,2003,2009,2013,
            Gaussian, Inc.  All Rights Reserved.
  
 This is part of the Gaussian(R) 09 program.  It is based on
 the Gaussian(R) 03 system (copyright 2003, Gaussian, Inc.),
 the Gaussian(R) 98 system (copyright 1998, Gaussian, Inc.),
 the Gaussian(R) 94 system (copyright 1995, Gaussian, Inc.),
 the Gaussian 92(TM) system (copyright 1992, Gaussian, Inc.),
 the Gaussian 90(TM) system (copyright 1990, Gaussian, Inc.),
 the Gaussian 88(TM) system (copyright 1988, Gaussian, Inc.),
 the Gaussian 86(TM) system (copyright 1986, Carnegie Mellon
 University), and the Gaussian 82(TM) system (copyright 1983,
 Carnegie Mellon University). Gaussian is a federally registered
 trademark of Gaussian, Inc.
  
 This software contains proprietary and confidential information,
 including trade secrets, belonging to Gaussian, Inc.
  
 This software is provided under written license and may be
 used, copied, transmitted, or stored only in accord with that
 written license.
  
 The following legend is applicable only to US Government
 contracts under FAR:
  
                    RESTRICTED RIGHTS LEGEND
  
 Use, reproduction and disclosure by the US Government is
 subject to restrictions as set forth in subparagraphs (a)
 and (c) of the Commercial Computer Software - Restricted
 Rights clause in FAR 52.227-19.
  
 Gaussian, Inc.
 340 Quinnipiac St., Bldg. 40, Wallingford CT 06492
  
  
 ---------------------------------------------------------------
 Warning -- This program may not be used in any manner that
 competes with the business of Gaussian, Inc. or will provide
 assistance to any competitor of Gaussian, Inc.  The licensee
 of this program is prohibited from giving any competitor of
 Gaussian, Inc. access to this program.  By using this program,
 the user acknowledges that Gaussian, Inc. is engaged in the
 business of creating and licensing software in the field of
 computational chemistry and represents and warrants to the
 licensee that it is not a competitor of Gaussian, Inc. and that
 it will not use this program in any manner prohibited above.
 ---------------------------------------------------------------
  

 Cite this work as:
 Gaussian 09, Revision D.01,
 M. J. Frisch, G. W. Trucks, H. B. Schlegel, G. E. Scuseria, 
 M. A. Robb, J. R. Cheeseman, G. Scalmani, V. Barone, B. Mennucci, 
 G. A. Petersson, H. Nakatsuji, M. Caricato, X. Li, H. P. Hratchian, 
 A. F. Izmaylov, J. Bloino, G. Zheng, J. L. Sonnenberg, M. Hada, 
 M. Ehara, K. Toyota, R. Fukuda, J. Hasegawa, M. Ishida, T. Nakajima, 
 Y. Honda, O. Kitao, H. Nakai, T. Vreven, J. A. Montgomery, Jr., 
 J. E. Peralta, F. Ogliaro, M. Bearpark, J. J. Heyd, E. Brothers, 
 K. N. Kudin, V. N. Staroverov, T. Keith, R. Kobayashi, J. Normand, 
 K. Raghavachari, A. Rendell, J. C. Burant, S. S. Iyengar, J. Tomasi, 
 M. Cossi, N. Rega, J. M. Millam, M. Klene, J. E. Knox, J. B. Cross, 
 V. Bakken, C. Adamo, J. Jaramillo, R. Gomperts, R. E. Stratmann, 
 O. Yazyev, A. J. Austin, R. Cammi, C. Pomelli, J. W. Ochterski, 
 R. L. Martin, K. Morokuma, V. G. Zakrzewski, G. A. Voth, 
 P. Salvador, J. J. Dannenberg, S. Dapprich, A. D. Daniels, 
 O. Farkas, J. B. Foresman, J. V. Ortiz, J. Cioslowski, 
 and D. J. Fox, Gaussian, Inc., Wallingford CT, 2013.
 
 ******************************************
 Gaussian 09:  ES64L-G09RevD.01 24-Apr-2013
                22-Apr-2026 
 ******************************************
 -------------------------------------------
 # UHF/6-31G(d) GFInput Pop=Full IOP(6/80=1)
 -------------------------------------------
 1/38=1/1;
 2/12=2,17=6,18=5,40=1/2;
 3/5=1,6=6,7=1,11=2,16=1,24=10,25=1,30=1,116=2/1,2,3;
 4//1;
 5/5=2,38=5/2;
 6/7=3,28=1,80=1/1;
 99/5=1,9=1/99;
 -------
 Węgiel
 -------
 Symbolic Z-matrix:
 Charge =  0 Multiplicity = 3
 C                     0.        0.        0. 
 
                          Input orientation:                          
 ---------------------------------------------------------------------
 Center     Atomic      Atomic             Coordinates (Angstroms)
 Number     Number       Type             X           Y           Z
 ---------------------------------------------------------------------
      1          6           0        0.000000    0.000000    0.000000
 ---------------------------------------------------------------------
 Stoichiometry    C(3)
 Framework group  OH[O(C)]
 Deg. of freedom     0
 Full point group                 OH      NOp  48
 Largest Abelian subgroup         D2H     NOp   8
 Largest concise Abelian subgroup C1      NOp   1
                         Standard orientation:                         
 ---------------------------------------------------------------------
 Center     Atomic      Atomic             Coordinates (Angstroms)
 Number     Number       Type             X           Y           Z
 ---------------------------------------------------------------------
      1          6           0        0.000000    0.000000    0.000000
 ---------------------------------------------------------------------
 Standard basis: 6-31G(d) (6D, 7F)
 AO basis set in the form of general basis input (Overlap normalization):
      1 0
 S   6 1.00       0.000000000000
      0.3047524880D+04  0.1834737132D-02
      0.4573695180D+03  0.1403732281D-01
      0.1039486850D+03  0.6884262226D-01
      0.2921015530D+02  0.2321844432D+00
      0.9286662960D+01  0.4679413484D+00
      0.3163926960D+01  0.3623119853D+00
 SP   3 1.00       0.000000000000
      0.7868272350D+01 -0.1193324198D+00  0.6899906659D-01
      0.1881288540D+01 -0.1608541517D+00  0.3164239610D+00
      0.5442492580D+00  0.1143456438D+01  0.7443082909D+00
 SP   1 1.00       0.000000000000
      0.1687144782D+00  0.1000000000D+01  0.1000000000D+01
 D   1 1.00       0.000000000000
      0.8000000000D+00  0.1000000000D+01
 ****

 There are     6 symmetry adapted cartesian basis functions of AG  symmetry.
 There are     1 symmetry adapted cartesian basis functions of B1G symmetry.
 There are     1 symmetry adapted cartesian basis functions of B2G symmetry.
 There are     1 symmetry adapted cartesian basis functions of B3G symmetry.
 There are     0 symmetry adapted cartesian basis functions of AU  symmetry.
 There are     2 symmetry adapted cartesian basis functions of B1U symmetry.
 There are     2 symmetry adapted cartesian basis functions of B2U symmetry.
 There are     2 symmetry adapted cartesian basis functions of B3U symmetry.
 There are     6 symmetry adapted basis functions of AG  symmetry.
 There are     1 symmetry adapted basis functions of B1G symmetry.
 There are     1 symmetry adapted basis functions of B2G symmetry.
 There are     1 symmetry adapted basis functions of B3G symmetry.
 There are     0 symmetry adapted basis functions of AU  symmetry.
 There are     2 symmetry adapted basis functions of B1U symmetry.
 There are     2 symmetry adapted basis functions of B2U symmetry.
 There are     2 symmetry adapted basis functions of B3U symmetry.
    15 basis functions,    28 primitive gaussians,    15 cartesian basis functions
     4 alpha electrons        2 beta electrons
       nuclear repulsion energy         0.0000000000 Hartrees.
 NAtoms=    1 NActive=    1 NUniq=    1 SFac= 1.00D+00 NAtFMM=   60 NAOKFM=F Big=F
 Integral buffers will be    131072 words long.
 Raffenetti 2 integral format.
 Two-electron integral symmetry is turned on.
 One-electron integrals computed using PRISM.
 NBasis=    15 RedAO= T EigKep=  1.35D-01  NBF=     6     1     1     1     0     2     2     2
 NBsUse=    15 1.00D-06 EigRej= -1.00D+00 NBFU=     6     1     1     1     0     2     2     2
 ExpMin= 1.69D-01 ExpMax= 3.05D+03 ExpMxC= 4.57D+02 IAcc=1 IRadAn=         1 AccDes= 0.00D+00
 Harris functional with IExCor=  205 and IRadAn=       1 diagonalized for initial guess.
 HarFok:  IExCor=  205 AccDes= 0.00D+00 IRadAn=         1 IDoV= 1 UseB2=F ITyADJ=14
 ICtDFT=  3500011 ScaDFX=  1.000000  1.000000  1.000000  1.000000
 FoFCou: FMM=F IPFlag=           0 FMFlag=      100000 FMFlg1=           0
         NFxFlg=           0 DoJE=T BraDBF=F KetDBF=T FulRan=T
         wScrn=  0.000000 ICntrl=     500 IOpCl=  0 I1Cent=   200000004 NGrid=           0
         NMat0=    1 NMatS0=      1 NMatT0=    0 NMatD0=    1 NMtDS0=    0 NMtDT0=    0
 Petite list used in FoFCou.
 Initial guess orbital symmetries:
 Alpha Orbitals:
       Occupied  (A1G) (A1G) (T1U) (T1U)
       Virtual   (T1U) (T1U) (T1U) (T1U) (A1G) (EG) (EG) (T2G)
                 (T2G) (T2G) (A1G)
 Beta  Orbitals:
       Occupied  (A1G) (A1G)
       Virtual   (T1U) (T1U) (T1U) (T1U) (T1U) (T1U) (A1G) (EG)
                 (EG) (T2G) (T2G) (T2G) (A1G)
 Initial guess <Sx>= 0.0000 <Sy>= 0.0000 <Sz>= 1.0000 <S**2>= 2.0000 S= 1.0000
 Keep R1 and R2 ints in memory in symmetry-blocked form, NReq=853456.
 Requested convergence on RMS density matrix=1.00D-08 within 128 cycles.
 Requested convergence on MAX density matrix=1.00D-06.
 Requested convergence on             energy=1.00D-06.
 No special actions if energy rises.
 Density matrix breaks symmetry, PCut= 1.00D-04
 Density has only Abelian symmetry.
 Density matrix breaks symmetry, PCut= 1.00D-07
 Density has only Abelian symmetry.
 Density matrix breaks symmetry, PCut= 1.00D-07
 Density has only Abelian symmetry.
 Density matrix breaks symmetry, PCut= 1.00D-07
 Density has only Abelian symmetry.
 Density matrix breaks symmetry, PCut= 1.00D-07
 Density has only Abelian symmetry.
 Density matrix breaks symmetry, PCut= 1.00D-07
 Density has only Abelian symmetry.
 Density matrix breaks symmetry, PCut= 1.00D-07
 Density has only Abelian symmetry.
 Density matrix breaks symmetry, PCut= 1.00D-07
 Density has only Abelian symmetry.
 Density matrix breaks symmetry, PCut= 1.00D-07
 Density has only Abelian symmetry.
 SCF Done:  E(UHF) =  -37.6808603247     A.U. after    8 cycles
            NFock=  8  Conv=0.24D-08     -V/T= 1.9995
 <Sx>= 0.0000 <Sy>= 0.0000 <Sz>= 1.0000 <S**2>= 2.0048 S= 1.0016
 <L.S>= 0.000000000000E+00
 Annihilation of the first spin contaminant:
 S**2 before annihilation     2.0048,   after     2.0000

 **********************************************************************

            Population analysis using the SCF density.

 **********************************************************************

 Orbital symmetries:
 Alpha Orbitals:
       Occupied  (A1G) (?A) (?B) (?B)
       Virtual   (?B) (?B) (?B) (?A) (?B) (T2G) (?A) (T2G) (T2G)
                 (?A) (A1G)
 Beta  Orbitals:
       Occupied  (A1G) (?A)
       Virtual   (?B) (?B) (?B) (?A) (?B) (?B) (?B) (?A) (T2G)
                 (T2G) (?A) (T2G) (A1G)
 Unable to determine electronic state:  an orbital has unidentified symmetry.
 Alpha  occ. eigenvalues --  -11.33309  -0.82018  -0.42928  -0.42928
 Alpha virt. eigenvalues --    0.05473   0.70763   0.70763   0.74126   0.78768
 Alpha virt. eigenvalues --    1.90179   1.90179   1.93416   1.93416   1.94657
 Alpha virt. eigenvalues --    4.15821
  Beta  occ. eigenvalues --  -11.29038  -0.57535
  Beta virt. eigenvalues --    0.09857   0.15764   0.15764   0.80999   0.81858
  Beta virt. eigenvalues --    0.87131   0.87131   2.02437   2.04083   2.04083
  Beta virt. eigenvalues --    2.09509   2.09509   4.22115
     Alpha Molecular Orbital Coefficients:
                           1         2         3         4         5
                       (A1G)--O      O         O         O         V
     Eigenvalues --   -11.33309  -0.82018  -0.42928  -0.42928   0.05473
   1 1   C  1S          0.99504  -0.23232   0.00000   0.00000   0.00000
   2        2S          0.02906   0.51154   0.00000   0.00000   0.00000
   3        2PX         0.00000   0.00000   0.00000   0.00000   0.46677
   4        2PY         0.00000   0.00000   0.00000   0.65593   0.00000
   5        2PZ         0.00000   0.00000   0.65593   0.00000   0.00000
   6        3S         -0.00393   0.57587   0.00000   0.00000   0.00000
   7        3PX         0.00000   0.00000   0.00000   0.00000   0.65756
   8        3PY         0.00000   0.00000   0.00000   0.46856   0.00000
   9        3PZ         0.00000   0.00000   0.46856   0.00000   0.00000
  10        4XX        -0.00492  -0.03286   0.00000   0.00000   0.00000
  11        4YY        -0.00290   0.00747   0.00000   0.00000   0.00000
  12        4ZZ        -0.00290   0.00747   0.00000   0.00000   0.00000
  13        4XY         0.00000   0.00000   0.00000   0.00000   0.00000
  14        4XZ         0.00000   0.00000   0.00000   0.00000   0.00000
  15        4YZ         0.00000   0.00000   0.00000   0.00000   0.00000
                           6         7         8         9        10
                           V         V         V         V     (T2G)--V
     Eigenvalues --     0.70763   0.70763   0.74126   0.78768   1.90179
   1 1   C  1S          0.00000   0.00000   0.04047   0.00000   0.00000
   2        2S          0.00000   0.00000  -1.40840   0.00000   0.00000
   3        2PX         0.00000   0.00000   0.00000   1.12373   0.00000
   4        2PY         0.00000  -1.02489   0.00000   0.00000   0.00000
   5        2PZ        -1.02489   0.00000   0.00000   0.00000   0.00000
   6        3S          0.00000   0.00000   1.67389   0.00000   0.00000
   7        3PX         0.00000   0.00000   0.00000  -1.02385   0.00000
   8        3PY         0.00000   1.12299   0.00000   0.00000   0.00000
   9        3PZ         1.12299   0.00000   0.00000   0.00000   0.00000
  10        4XX         0.00000   0.00000  -0.12603   0.00000   0.00000
  11        4YY         0.00000   0.00000  -0.13652   0.00000   0.00000
  12        4ZZ         0.00000   0.00000  -0.13652   0.00000   0.00000
  13        4XY         0.00000   0.00000   0.00000   0.00000   0.00000
  14        4XZ         0.00000   0.00000   0.00000   0.00000   0.00000
  15        4YZ         0.00000   0.00000   0.00000   0.00000   1.00000
                          11        12        13        14        15
                           V     (T2G)--V  (T2G)--V      V     (A1G)--V
     Eigenvalues --     1.90179   1.93416   1.93416   1.94657   4.15821
   1 1   C  1S          0.00000   0.00000   0.00000  -0.00345  -0.43128
   2        2S          0.00000   0.00000   0.00000   0.01049   3.25473
   3        2PX         0.00000   0.00000   0.00000   0.00000   0.00000
   4        2PY         0.00000   0.00000   0.00000   0.00000   0.00000
   5        2PZ         0.00000   0.00000   0.00000   0.00000   0.00000
   6        3S          0.00000   0.00000   0.00000   0.00096   0.69562
   7        3PX         0.00000   0.00000   0.00000   0.00000   0.00000
   8        3PY         0.00000   0.00000   0.00000   0.00000   0.00000
   9        3PZ         0.00000   0.00000   0.00000   0.00000   0.00000
  10        4XX         0.00000   0.00000   0.00000   1.00740  -1.73437
  11        4YY         0.86603   0.00000   0.00000  -0.49201  -1.74044
  12        4ZZ        -0.86603   0.00000   0.00000  -0.49201  -1.74044
  13        4XY         0.00000   1.00000   0.00000   0.00000   0.00000
  14        4XZ         0.00000   0.00000   1.00000   0.00000   0.00000
  15        4YZ         0.00000   0.00000   0.00000   0.00000   0.00000
     Beta Molecular Orbital Coefficients:
                           1         2         3         4         5
                       (A1G)--O      O         V         V         V
     Eigenvalues --   -11.29038  -0.57535   0.09857   0.15764   0.15764
   1 1   C  1S          0.99700  -0.22538   0.00000   0.00000   0.00000
   2        2S          0.01780   0.44484   0.00000   0.00000   0.00000
   3        2PX         0.00000   0.00000   0.43304   0.00000   0.00000
   4        2PY         0.00000   0.00000   0.00000   0.39719   0.00000
   5        2PZ         0.00000   0.00000   0.00000   0.00000   0.39719
   6        3S         -0.00453   0.65149   0.00000   0.00000   0.00000
   7        3PX         0.00000   0.00000   0.68781   0.00000   0.00000
   8        3PY         0.00000   0.00000   0.00000   0.71892   0.00000
   9        3PZ         0.00000   0.00000   0.00000   0.00000   0.71892
  10        4XX        -0.00016   0.01368   0.00000   0.00000   0.00000
  11        4YY        -0.00083  -0.02346   0.00000   0.00000   0.00000
  12        4ZZ        -0.00083  -0.02346   0.00000   0.00000   0.00000
  13        4XY         0.00000   0.00000   0.00000   0.00000   0.00000
  14        4XZ         0.00000   0.00000   0.00000   0.00000   0.00000
  15        4YZ         0.00000   0.00000   0.00000   0.00000   0.00000
                           6         7         8         9        10
                           V         V         V         V         V
     Eigenvalues --     0.80999   0.81858   0.87131   0.87131   2.02437
   1 1   C  1S          0.04506   0.00000   0.00000   0.00000   0.00836
   2        2S         -1.40200   0.00000   0.00000   0.00000  -0.05572
   3        2PX         0.00000   1.13716   0.00000   0.00000   0.00000
   4        2PY         0.00000   0.00000   0.00000   1.15017   0.00000
   5        2PZ         0.00000   0.00000   1.15017   0.00000   0.00000
   6        3S          1.65164   0.00000   0.00000   0.00000   0.01156
   7        3PX         0.00000  -1.00378   0.00000   0.00000   0.00000
   8        3PY         0.00000   0.00000   0.00000  -0.98173   0.00000
   9        3PZ         0.00000   0.00000  -0.98173   0.00000   0.00000
  10        4XX        -0.16658   0.00000   0.00000   0.00000   1.00653
  11        4YY        -0.13803   0.00000   0.00000   0.00000  -0.49271
  12        4ZZ        -0.13803   0.00000   0.00000   0.00000  -0.49271
  13        4XY         0.00000   0.00000   0.00000   0.00000   0.00000
  14        4XZ         0.00000   0.00000   0.00000   0.00000   0.00000
  15        4YZ         0.00000   0.00000   0.00000   0.00000   0.00000
                          11        12        13        14        15
                       (T2G)--V  (T2G)--V      V     (T2G)--V  (A1G)--V
     Eigenvalues --     2.04083   2.04083   2.09509   2.09509   4.22115
   1 1   C  1S          0.00000   0.00000   0.00000   0.00000  -0.42992
   2        2S          0.00000   0.00000   0.00000   0.00000   3.26689
   3        2PX         0.00000   0.00000   0.00000   0.00000   0.00000
   4        2PY         0.00000   0.00000   0.00000   0.00000   0.00000
   5        2PZ         0.00000   0.00000   0.00000   0.00000   0.00000
   6        3S          0.00000   0.00000   0.00000   0.00000   0.68185
   7        3PX         0.00000   0.00000   0.00000   0.00000   0.00000
   8        3PY         0.00000   0.00000   0.00000   0.00000   0.00000
   9        3PZ         0.00000   0.00000   0.00000   0.00000   0.00000
  10        4XX         0.00000   0.00000   0.00000   0.00000  -1.73172
  11        4YY         0.00000   0.00000   0.86603   0.00000  -1.73998
  12        4ZZ         0.00000   0.00000  -0.86603   0.00000  -1.73998
  13        4XY         1.00000   0.00000   0.00000   0.00000   0.00000
  14        4XZ         0.00000   1.00000   0.00000   0.00000   0.00000
  15        4YZ         0.00000   0.00000   0.00000   1.00000   0.00000
     Alpha Density Matrix:
                           1         2         3         4         5
   1 1   C  1S          1.04408
   2        2S         -0.08992   0.26252
   3        2PX         0.00000   0.00000   0.00000
   4        2PY         0.00000   0.00000   0.00000   0.43024
   5        2PZ         0.00000   0.00000   0.00000   0.00000   0.43024
   6        3S         -0.13770   0.29447   0.00000   0.00000   0.00000
   7        3PX         0.00000   0.00000   0.00000   0.00000   0.00000
   8        3PY         0.00000   0.00000   0.00000   0.30734   0.00000
   9        3PZ         0.00000   0.00000   0.00000   0.00000   0.30734
  10        4XX         0.00274  -0.01695   0.00000   0.00000   0.00000
  11        4YY        -0.00462   0.00374   0.00000   0.00000   0.00000
  12        4ZZ        -0.00462   0.00374   0.00000   0.00000   0.00000
  13        4XY         0.00000   0.00000   0.00000   0.00000   0.00000
  14        4XZ         0.00000   0.00000   0.00000   0.00000   0.00000
  15        4YZ         0.00000   0.00000   0.00000   0.00000   0.00000
                           6         7         8         9        10
   6        3S          0.33164
   7        3PX         0.00000   0.00000
   8        3PY         0.00000   0.00000   0.21955
   9        3PZ         0.00000   0.00000   0.00000   0.21955
  10        4XX        -0.01890   0.00000   0.00000   0.00000   0.00110
  11        4YY         0.00431   0.00000   0.00000   0.00000  -0.00023
  12        4ZZ         0.00431   0.00000   0.00000   0.00000  -0.00023
  13        4XY         0.00000   0.00000   0.00000   0.00000   0.00000
  14        4XZ         0.00000   0.00000   0.00000   0.00000   0.00000
  15        4YZ         0.00000   0.00000   0.00000   0.00000   0.00000
                          11        12        13        14        15
  11        4YY         0.00006
  12        4ZZ         0.00006   0.00006
  13        4XY         0.00000   0.00000   0.00000
  14        4XZ         0.00000   0.00000   0.00000   0.00000
  15        4YZ         0.00000   0.00000   0.00000   0.00000   0.00000
     Beta Density Matrix:
                           1         2         3         4         5
   1 1   C  1S          1.04480
   2        2S         -0.08251   0.19820
   3        2PX         0.00000   0.00000   0.00000
   4        2PY         0.00000   0.00000   0.00000   0.00000
   5        2PZ         0.00000   0.00000   0.00000   0.00000   0.00000
   6        3S         -0.15135   0.28973   0.00000   0.00000   0.00000
   7        3PX         0.00000   0.00000   0.00000   0.00000   0.00000
   8        3PY         0.00000   0.00000   0.00000   0.00000   0.00000
   9        3PZ         0.00000   0.00000   0.00000   0.00000   0.00000
  10        4XX        -0.00324   0.00608   0.00000   0.00000   0.00000
  11        4YY         0.00446  -0.01045   0.00000   0.00000   0.00000
  12        4ZZ         0.00446  -0.01045   0.00000   0.00000   0.00000
  13        4XY         0.00000   0.00000   0.00000   0.00000   0.00000
  14        4XZ         0.00000   0.00000   0.00000   0.00000   0.00000
  15        4YZ         0.00000   0.00000   0.00000   0.00000   0.00000
                           6         7         8         9        10
   6        3S          0.42446
   7        3PX         0.00000   0.00000
   8        3PY         0.00000   0.00000   0.00000
   9        3PZ         0.00000   0.00000   0.00000   0.00000
  10        4XX         0.00891   0.00000   0.00000   0.00000   0.00019
  11        4YY        -0.01528   0.00000   0.00000   0.00000  -0.00032
  12        4ZZ        -0.01528   0.00000   0.00000   0.00000  -0.00032
  13        4XY         0.00000   0.00000   0.00000   0.00000   0.00000
  14        4XZ         0.00000   0.00000   0.00000   0.00000   0.00000
  15        4YZ         0.00000   0.00000   0.00000   0.00000   0.00000
                          11        12        13        14        15
  11        4YY         0.00055
  12        4ZZ         0.00055   0.00055
  13        4XY         0.00000   0.00000   0.00000
  14        4XZ         0.00000   0.00000   0.00000   0.00000
  15        4YZ         0.00000   0.00000   0.00000   0.00000   0.00000
    Full Mulliken population analysis:
                           1         2         3         4         5
   1 1   C  1S          2.08888
   2        2S         -0.03777   0.46072
   3        2PX         0.00000   0.00000   0.00000
   4        2PY         0.00000   0.00000   0.00000   0.43024
   5        2PZ         0.00000   0.00000   0.00000   0.00000   0.43024
   6        3S         -0.05326   0.47453   0.00000   0.00000   0.00000
   7        3PX         0.00000   0.00000   0.00000   0.00000   0.00000
   8        3PY         0.00000   0.00000   0.00000   0.17511   0.00000
   9        3PZ         0.00000   0.00000   0.00000   0.00000   0.17511
  10        4XX        -0.00004  -0.00772   0.00000   0.00000   0.00000
  11        4YY        -0.00001  -0.00477   0.00000   0.00000   0.00000
  12        4ZZ        -0.00001  -0.00477   0.00000   0.00000   0.00000
  13        4XY         0.00000   0.00000   0.00000   0.00000   0.00000
  14        4XZ         0.00000   0.00000   0.00000   0.00000   0.00000
  15        4YZ         0.00000   0.00000   0.00000   0.00000   0.00000
                           6         7         8         9        10
   6        3S          0.75610
   7        3PX         0.00000   0.00000
   8        3PY         0.00000   0.00000   0.21955
   9        3PZ         0.00000   0.00000   0.00000   0.21955
  10        4XX        -0.00629   0.00000   0.00000   0.00000   0.00129
  11        4YY        -0.00691   0.00000   0.00000   0.00000  -0.00018
  12        4ZZ        -0.00691   0.00000   0.00000   0.00000  -0.00018
  13        4XY         0.00000   0.00000   0.00000   0.00000   0.00000
  14        4XZ         0.00000   0.00000   0.00000   0.00000   0.00000
  15        4YZ         0.00000   0.00000   0.00000   0.00000   0.00000
                          11        12        13        14        15
  11        4YY         0.00062
  12        4ZZ         0.00021   0.00062
  13        4XY         0.00000   0.00000   0.00000
  14        4XZ         0.00000   0.00000   0.00000   0.00000
  15        4YZ         0.00000   0.00000   0.00000   0.00000   0.00000
     Gross orbital populations:
                         Total     Alpha     Beta      Spin
   1 1   C  1S          1.99778   0.99849   0.99929  -0.00079
   2        2S          0.88021   0.47528   0.40493   0.07035
   3        2PX         0.00000   0.00000   0.00000   0.00000
   4        2PY         0.60535   0.60535   0.00000   0.60535
   5        2PZ         0.60535   0.60535   0.00000   0.60535
   6        3S          1.15725   0.53898   0.61827  -0.07929
   7        3PX         0.00000   0.00000   0.00000   0.00000
   8        3PY         0.39465   0.39465   0.00000   0.39465
   9        3PZ         0.39465   0.39465   0.00000   0.39465
  10        4XX        -0.01313  -0.02278   0.00965  -0.03243
  11        4YY        -0.01106   0.00501  -0.01607   0.02108
  12        4ZZ        -0.01106   0.00501  -0.01607   0.02108
  13        4XY         0.00000   0.00000   0.00000   0.00000
  14        4XZ         0.00000   0.00000   0.00000   0.00000
  15        4YZ         0.00000   0.00000   0.00000   0.00000
          Condensed to atoms (all electrons):
               1
     1  C    6.000000
          Atomic-Atomic Spin Densities.
               1
     1  C    2.000000
 Mulliken charges and spin densities:
               1          2
     1  C    0.000000   2.000000
 Sum of Mulliken charges =   0.00000   2.00000
 Mulliken charges and spin densities with hydrogens summed into heavy atoms:
               1          2
     1  C    0.000000   2.000000
 Atomic Valencies and Mayer Atomic Bond Orders:
               1
     1  C    0.000000
 Lowdin Atomic Charges:
               1
     1  C    0.000000
 Sum of Lowdin charges  =   0.00000
 Lowdin atomic charges with hydrogens summed into heavy atoms:
               1
     1  C    0.000000
 Sum of Lowdin charges  =   0.00000
 Dipole moment from Lowdin charges (Debye):
    X=     0.0000    Y=     0.0000    Z=     0.0000  Tot=     0.0000
 Electronic spatial extent (au):  <R**2>=             13.1459
 Charge=              0.0000 electrons
 Dipole moment (field-independent basis, Debye):
    X=              0.0000    Y=              0.0000    Z=              0.0000  Tot=              0.0000
 Quadrupole moment (field-independent basis, Debye-Ang):
   XX=             -4.6491   YY=             -6.5163   ZZ=             -6.5163
   XY=              0.0000   XZ=              0.0000   YZ=              0.0000
 Traceless Quadrupole moment (field-independent basis, Debye-Ang):
   XX=              1.2448   YY=             -0.6224   ZZ=             -0.6224
   XY=              0.0000   XZ=              0.0000   YZ=              0.0000
 Octapole moment (field-independent basis, Debye-Ang**2):
  XXX=              0.0000  YYY=              0.0000  ZZZ=              0.0000  XYY=              0.0000
  XXY=              0.0000  XXZ=              0.0000  XZZ=              0.0000  YZZ=              0.0000
  YYZ=              0.0000  XYZ=              0.0000
 Hexadecapole moment (field-independent basis, Debye-Ang**3):
 XXXX=             -4.1104 YYYY=             -7.2362 ZZZZ=             -7.2362 XXXY=              0.0000
 XXXZ=              0.0000 YYYX=              0.0000 YYYZ=              0.0000 ZZZX=              0.0000
 ZZZY=              0.0000 XXYY=             -1.8909 XXZZ=             -1.8909 YYZZ=             -2.4121
 XXYZ=              0.0000 YYXZ=              0.0000 ZZXY=              0.0000
 N-N= 0.000000000000D+00 E-N=-8.818554882306D+01  KE= 3.770138968210D+01
 Symmetry AG   KE= 3.517871186240D+01
 Symmetry B1G  KE= 2.106936614473D-35
 Symmetry B2G  KE= 2.106936614473D-35
 Symmetry B3G  KE= 0.000000000000D+00
 Symmetry AU   KE= 0.000000000000D+00
 Symmetry B1U  KE= 1.261338909851D+00
 Symmetry B2U  KE= 1.261338909851D+00
 Symmetry B3U  KE= 4.729263423254D-33
 Orbital energies and kinetic energies (alpha):
                                 1                 2
   1         (A1G)--O        -11.333093         15.986043
   2         O                -0.820179          1.639368
   3         O                -0.429280          1.261339
   4         O                -0.429280          1.261339
   5         V                 0.054732          0.888190
   6         V                 0.707629          1.952993
   7         V                 0.707629          1.952993
   8         V                 0.741259          1.670237
   9         V                 0.787684          2.326142
  10         (T2G)--V          1.901795          2.800000
  11         V                 1.901795          2.800000
  12         (T2G)--V          1.934158          2.800000
  13         (T2G)--V          1.934158          2.800000
  14         V                 1.946566          2.798796
  15         (A1G)--V          4.158211          9.489873
 Orbital energies and kinetic energies (beta):
                                 1                 2
   1         (A1G)--O        -11.290382         16.067376
   2         O                -0.575347          1.485926
   3         V                 0.098565          0.832403
   4         V                 0.157642          0.776780
   5         V                 0.157642          0.776780
   6         V                 0.809993          1.738567
   7         V                 0.818585          2.381929
   8         V                 0.871313          2.437552
   9         V                 0.871313          2.437552
  10         V                 2.024367          2.800950
  11         (T2G)--V          2.040834          2.800000
  12         (T2G)--V          2.040834          2.800000
  13         V                 2.095086          2.800000
  14         (T2G)--V          2.095086          2.800000
  15         (A1G)--V          4.221146          9.491498
 Total kinetic energy from orbitals= 3.770138968210D+01
                          Isotropic Fermi Contact Couplings
        Atom                 a.u.       MegaHertz       Gauss      10(-4) cm-1
     1  C(13)              0.00181       1.01963       0.36383       0.34011
 --------------------------------------------------------
       Center         ----  Spin Dipole Couplings  ----
                      3XX-RR        3YY-RR        3ZZ-RR
 --------------------------------------------------------
     1   Atom       -1.308632      0.654316      0.654316
 --------------------------------------------------------
                        XY            XZ            YZ
 --------------------------------------------------------
     1   Atom        0.000000      0.000000      0.000000
 --------------------------------------------------------


 ---------------------------------------------------------------------------------
              Anisotropic Spin Dipole Couplings in Principal Axis System
 ---------------------------------------------------------------------------------

       Atom             a.u.   MegaHertz   Gauss  10(-4) cm-1        Axes

              Baa    -1.3086  -175.606   -62.661   -58.576  1.0000  0.0000  0.0000
     1 C(13)  Bbb     0.6543    87.803    31.330    29.288  0.0000  1.0000  0.0000
              Bcc     0.6543    87.803    31.330    29.288  0.0000  0.0000  1.0000
 

 ---------------------------------------------------------------------------------


 Test job not archived.
 1\1\GINC-KADET27\SP\UHF\6-31G(d)\C1(3)\MDOROHUN\22-Apr-2026\0\\# UHF/6
 -31G(d) GFInput Pop=Full IOP(6/80=1)\\Węgiel\\0,3\C,0,0.,0.,0.\\Versi
 on=ES64L-G09RevD.01\HF=-37.6808603\S2=2.004769\S2-1=0.\S2A=2.\RMSD=2.4
 06e-09\Dipole=0.,0.,0.\Quadrupole=-0.4627343,-0.4627343,0.9254687,0.,0
 .,0.\PG=OH [O(C1)]\\@


 DEPRESSION IS WAITING FOR YOUR SHIP TO COME IN,
 AND FINDING OUT IT'S THE TITANIC.
 Job cpu time:       0 days  0 hours  0 minutes  0.3 seconds.
 File lengths (MBytes):  RWF=      5 Int=      0 D2E=      0 Chk=      1 Scr=      1
 Normal termination of Gaussian 09 at Wed Apr 22 13:17:58 2026.
