 Entering Gaussian System, Link 0=/opt/g09/g09/g09
 Input=formamid_freq.inp
 Output=formamid_freq.log
 Initial command:
 /opt/g09/g09/l1.exe "/tmp/Gau-10699.inp" -scrdir="/tmp/"
 Entering Link 1 = /opt/g09/g09/l1.exe PID=     10701.
  
 Copyright (c) 1988,1990,1992,1993,1995,1998,2003,2009,2013,
            Gaussian, Inc.  All Rights Reserved.
  
 This is part of the Gaussian(R) 09 program.  It is based on
 the Gaussian(R) 03 system (copyright 2003, Gaussian, Inc.),
 the Gaussian(R) 98 system (copyright 1998, Gaussian, Inc.),
 the Gaussian(R) 94 system (copyright 1995, Gaussian, Inc.),
 the Gaussian 92(TM) system (copyright 1992, Gaussian, Inc.),
 the Gaussian 90(TM) system (copyright 1990, Gaussian, Inc.),
 the Gaussian 88(TM) system (copyright 1988, Gaussian, Inc.),
 the Gaussian 86(TM) system (copyright 1986, Carnegie Mellon
 University), and the Gaussian 82(TM) system (copyright 1983,
 Carnegie Mellon University). Gaussian is a federally registered
 trademark of Gaussian, Inc.
  
 This software contains proprietary and confidential information,
 including trade secrets, belonging to Gaussian, Inc.
  
 This software is provided under written license and may be
 used, copied, transmitted, or stored only in accord with that
 written license.
  
 The following legend is applicable only to US Government
 contracts under FAR:
  
                    RESTRICTED RIGHTS LEGEND
  
 Use, reproduction and disclosure by the US Government is
 subject to restrictions as set forth in subparagraphs (a)
 and (c) of the Commercial Computer Software - Restricted
 Rights clause in FAR 52.227-19.
  
 Gaussian, Inc.
 340 Quinnipiac St., Bldg. 40, Wallingford CT 06492
  
  
 ---------------------------------------------------------------
 Warning -- This program may not be used in any manner that
 competes with the business of Gaussian, Inc. or will provide
 assistance to any competitor of Gaussian, Inc.  The licensee
 of this program is prohibited from giving any competitor of
 Gaussian, Inc. access to this program.  By using this program,
 the user acknowledges that Gaussian, Inc. is engaged in the
 business of creating and licensing software in the field of
 computational chemistry and represents and warrants to the
 licensee that it is not a competitor of Gaussian, Inc. and that
 it will not use this program in any manner prohibited above.
 ---------------------------------------------------------------
  

 Cite this work as:
 Gaussian 09, Revision D.01,
 M. J. Frisch, G. W. Trucks, H. B. Schlegel, G. E. Scuseria, 
 M. A. Robb, J. R. Cheeseman, G. Scalmani, V. Barone, B. Mennucci, 
 G. A. Petersson, H. Nakatsuji, M. Caricato, X. Li, H. P. Hratchian, 
 A. F. Izmaylov, J. Bloino, G. Zheng, J. L. Sonnenberg, M. Hada, 
 M. Ehara, K. Toyota, R. Fukuda, J. Hasegawa, M. Ishida, T. Nakajima, 
 Y. Honda, O. Kitao, H. Nakai, T. Vreven, J. A. Montgomery, Jr., 
 J. E. Peralta, F. Ogliaro, M. Bearpark, J. J. Heyd, E. Brothers, 
 K. N. Kudin, V. N. Staroverov, T. Keith, R. Kobayashi, J. Normand, 
 K. Raghavachari, A. Rendell, J. C. Burant, S. S. Iyengar, J. Tomasi, 
 M. Cossi, N. Rega, J. M. Millam, M. Klene, J. E. Knox, J. B. Cross, 
 V. Bakken, C. Adamo, J. Jaramillo, R. Gomperts, R. E. Stratmann, 
 O. Yazyev, A. J. Austin, R. Cammi, C. Pomelli, J. W. Ochterski, 
 R. L. Martin, K. Morokuma, V. G. Zakrzewski, G. A. Voth, 
 P. Salvador, J. J. Dannenberg, S. Dapprich, A. D. Daniels, 
 O. Farkas, J. B. Foresman, J. V. Ortiz, J. Cioslowski, 
 and D. J. Fox, Gaussian, Inc., Wallingford CT, 2013.
 
 ******************************************
 Gaussian 09:  ES64L-G09RevD.01 24-Apr-2013
                22-Apr-2026 
 ******************************************
 ------------------------------------------------
 # RHF/6-31G(d) GFInput Freq Pop=Full IOP(6/80=1)
 ------------------------------------------------
 1/10=4,30=1,38=1/1,3;
 2/12=2,17=6,18=5,40=1/2;
 3/5=1,6=6,7=1,11=1,16=1,24=10,25=1,30=1,71=2,116=1,140=1/1,2,3;
 4//1;
 5/5=2,38=5,98=1/2;
 8/6=4,10=90,11=11/1;
 10/13=10,15=4/2;
 11/6=3,8=1,9=11,15=111,16=1/1,2,10;
 10/6=1/2;
 6/7=3,18=1,28=1,80=1/1;
 7/8=1,10=1,25=1/1,2,3,16;
 1/10=4,30=1/3;
 99//99;
 ----------------------------------
 Freq analiza optymalnego formamida
 ----------------------------------
 Symbolic Z-matrix:
 Charge =  0 Multiplicity = 1
 6                    -0.01191  -0.03509   0.00811 
 8                    -0.00653  -0.15407   1.195 
 1                     0.87383   0.26731  -0.55204 
 7                    -1.08082  -0.25106  -0.78505 
 1                    -1.03331  -0.1369   -1.77019 
 1                    -1.94324  -0.53117  -0.37416 
 

 GradGradGradGradGradGradGradGradGradGradGradGradGradGradGradGradGradGrad
 Berny optimization.
 Initialization pass.
 Trust Radius=3.00D-01 FncErr=1.00D-07 GrdErr=1.00D-07
 Number of steps in this run=      2 maximum allowed number of steps=      2.
 GradGradGradGradGradGradGradGradGradGradGradGradGradGradGradGradGradGrad

                          Input orientation:                          
 ---------------------------------------------------------------------
 Center     Atomic      Atomic             Coordinates (Angstroms)
 Number     Number       Type             X           Y           Z
 ---------------------------------------------------------------------
      1          6           0       -0.011909   -0.035090    0.008109
      2          8           0       -0.006530   -0.154069    1.195004
      3          1           0        0.873827    0.267308   -0.552038
      4          7           0       -1.080817   -0.251062   -0.785050
      5          1           0       -1.033314   -0.136904   -1.770191
      6          1           0       -1.943244   -0.531173   -0.374163
 ---------------------------------------------------------------------
                    Distance matrix (angstroms):
                    1          2          3          4          5
     1  C    0.000000
     2  O    1.192856   0.000000
     3  H    1.090751   2.001185   0.000000
     4  N    1.348447   2.254798   2.035592   0.000000
     5  H    2.053286   3.137987   2.298798   0.992870   0.000000
     6  H    2.030341   2.520983   2.933445   0.995525   1.712400
                    6
     6  H    0.000000
 Stoichiometry    CH3NO
 Framework group  C1[X(CH3NO)]
 Deg. of freedom    12
 Full point group                 C1      NOp   1
 Largest Abelian subgroup         C1      NOp   1
 Largest concise Abelian subgroup C1      NOp   1
                         Standard orientation:                         
 ---------------------------------------------------------------------
 Center     Atomic      Atomic             Coordinates (Angstroms)
 Number     Number       Type             X           Y           Z
 ---------------------------------------------------------------------
      1          6           0        0.164670    0.381559    0.000002
      2          8           0        1.179624   -0.245158    0.000033
      3          1           0        0.152352    1.472240    0.000017
      4          7           0       -1.073290   -0.153009   -0.000206
      5          1           0       -1.888361    0.413957    0.000726
      6          1           0       -1.175971   -1.143225    0.000423
 ---------------------------------------------------------------------
 Rotational constants (GHZ):     75.6104228     11.6033349     10.0595723
 Standard basis: 6-31G(d) (6D, 7F)
 AO basis set in the form of general basis input (Overlap normalization):
      1 0
 S   6 1.00       0.000000000000
      0.3047524880D+04  0.1834737132D-02
      0.4573695180D+03  0.1403732281D-01
      0.1039486850D+03  0.6884262226D-01
      0.2921015530D+02  0.2321844432D+00
      0.9286662960D+01  0.4679413484D+00
      0.3163926960D+01  0.3623119853D+00
 SP   3 1.00       0.000000000000
      0.7868272350D+01 -0.1193324198D+00  0.6899906659D-01
      0.1881288540D+01 -0.1608541517D+00  0.3164239610D+00
      0.5442492580D+00  0.1143456438D+01  0.7443082909D+00
 SP   1 1.00       0.000000000000
      0.1687144782D+00  0.1000000000D+01  0.1000000000D+01
 D   1 1.00       0.000000000000
      0.8000000000D+00  0.1000000000D+01
 ****
      2 0
 S   6 1.00       0.000000000000
      0.5484671660D+04  0.1831074430D-02
      0.8252349460D+03  0.1395017220D-01
      0.1880469580D+03  0.6844507810D-01
      0.5296450000D+02  0.2327143360D+00
      0.1689757040D+02  0.4701928980D+00
      0.5799635340D+01  0.3585208530D+00
 SP   3 1.00       0.000000000000
      0.1553961625D+02 -0.1107775495D+00  0.7087426823D-01
      0.3599933586D+01 -0.1480262627D+00  0.3397528391D+00
      0.1013761750D+01  0.1130767015D+01  0.7271585773D+00
 SP   1 1.00       0.000000000000
      0.2700058226D+00  0.1000000000D+01  0.1000000000D+01
 D   1 1.00       0.000000000000
      0.8000000000D+00  0.1000000000D+01
 ****
      3 0
 S   3 1.00       0.000000000000
      0.1873113696D+02  0.3349460434D-01
      0.2825394365D+01  0.2347269535D+00
      0.6401216923D+00  0.8137573261D+00
 S   1 1.00       0.000000000000
      0.1612777588D+00  0.1000000000D+01
 ****
      4 0
 S   6 1.00       0.000000000000
      0.4173511460D+04  0.1834772160D-02
      0.6274579110D+03  0.1399462700D-01
      0.1429020930D+03  0.6858655181D-01
      0.4023432930D+02  0.2322408730D+00
      0.1282021290D+02  0.4690699481D+00
      0.4390437010D+01  0.3604551991D+00
 SP   3 1.00       0.000000000000
      0.1162636186D+02 -0.1149611817D+00  0.6757974388D-01
      0.2716279807D+01 -0.1691174786D+00  0.3239072959D+00
      0.7722183966D+00  0.1145851947D+01  0.7408951398D+00
 SP   1 1.00       0.000000000000
      0.2120314975D+00  0.1000000000D+01  0.1000000000D+01
 D   1 1.00       0.000000000000
      0.8000000000D+00  0.1000000000D+01
 ****
      5 0
 S   3 1.00       0.000000000000
      0.1873113696D+02  0.3349460434D-01
      0.2825394365D+01  0.2347269535D+00
      0.6401216923D+00  0.8137573261D+00
 S   1 1.00       0.000000000000
      0.1612777588D+00  0.1000000000D+01
 ****
      6 0
 S   3 1.00       0.000000000000
      0.1873113696D+02  0.3349460434D-01
      0.2825394365D+01  0.2347269535D+00
      0.6401216923D+00  0.8137573261D+00
 S   1 1.00       0.000000000000
      0.1612777588D+00  0.1000000000D+01
 ****

 There are    51 symmetry adapted cartesian basis functions of A   symmetry.
 There are    51 symmetry adapted basis functions of A   symmetry.
    51 basis functions,    96 primitive gaussians,    51 cartesian basis functions
    12 alpha electrons       12 beta electrons
       nuclear repulsion energy        72.0746585964 Hartrees.
 NAtoms=    6 NActive=    6 NUniq=    6 SFac= 1.00D+00 NAtFMM=   60 NAOKFM=F Big=F
 Integral buffers will be    131072 words long.
 Raffenetti 1 integral format.
 Two-electron integral symmetry is turned on.
 One-electron integrals computed using PRISM.
 NBasis=    51 RedAO= T EigKep=  5.13D-03  NBF=    51
 NBsUse=    51 1.00D-06 EigRej= -1.00D+00 NBFU=    51
 ExpMin= 1.61D-01 ExpMax= 5.48D+03 ExpMxC= 8.25D+02 IAcc=1 IRadAn=         1 AccDes= 0.00D+00
 Harris functional with IExCor=  205 and IRadAn=       1 diagonalized for initial guess.
 HarFok:  IExCor=  205 AccDes= 0.00D+00 IRadAn=         1 IDoV= 1 UseB2=F ITyADJ=14
 ICtDFT=  3500011 ScaDFX=  1.000000  1.000000  1.000000  1.000000
 FoFCou: FMM=F IPFlag=           0 FMFlag=      100000 FMFlg1=           0
         NFxFlg=           0 DoJE=T BraDBF=F KetDBF=T FulRan=T
         wScrn=  0.000000 ICntrl=     500 IOpCl=  0 I1Cent=   200000004 NGrid=           0
         NMat0=    1 NMatS0=      1 NMatT0=    0 NMatD0=    1 NMtDS0=    0 NMtDT0=    0
 Petite list used in FoFCou.
 Keep R1 ints in memory in canonical form, NReq=1744952.
 Requested convergence on RMS density matrix=1.00D-08 within 128 cycles.
 Requested convergence on MAX density matrix=1.00D-06.
 Requested convergence on             energy=1.00D-06.
 No special actions if energy rises.
 SCF Done:  E(RHF) =  -168.930702725     A.U. after   13 cycles
            NFock= 13  Conv=0.24D-08     -V/T= 2.0020
 Range of M.O.s used for correlation:     1    51
 NBasis=    51 NAE=    12 NBE=    12 NFC=     0 NFV=     0
 NROrb=     51 NOA=    12 NOB=    12 NVA=    39 NVB=    39
          Differentiating once with respect to electric field.
                with respect to dipole field.
          Electric field/nuclear overlap derivatives assumed to be zero.
 Keep R1 ints in memory in canonical form, NReq=1725935.
          There are     3 degrees of freedom in the 1st order CPHF.  IDoFFX=0 NUNeed=     3.
      3 vectors produced by pass  0 Test12= 1.56D-14 3.33D-08 XBig12= 6.44D+00 1.84D+00.
 AX will form     3 AO Fock derivatives at one time.
      3 vectors produced by pass  1 Test12= 1.56D-14 3.33D-08 XBig12= 5.34D-01 2.60D-01.
      3 vectors produced by pass  2 Test12= 1.56D-14 3.33D-08 XBig12= 7.33D-02 1.22D-01.
      3 vectors produced by pass  3 Test12= 1.56D-14 3.33D-08 XBig12= 4.23D-03 2.09D-02.
      3 vectors produced by pass  4 Test12= 1.56D-14 3.33D-08 XBig12= 3.83D-04 6.03D-03.
      3 vectors produced by pass  5 Test12= 1.56D-14 3.33D-08 XBig12= 1.45D-05 9.45D-04.
      3 vectors produced by pass  6 Test12= 1.56D-14 3.33D-08 XBig12= 1.97D-07 1.02D-04.
      3 vectors produced by pass  7 Test12= 1.56D-14 3.33D-08 XBig12= 2.58D-09 1.88D-05.
      3 vectors produced by pass  8 Test12= 1.56D-14 3.33D-08 XBig12= 2.81D-11 1.32D-06.
      2 vectors produced by pass  9 Test12= 1.56D-14 3.33D-08 XBig12= 5.96D-13 2.11D-07.
      1 vectors produced by pass 10 Test12= 1.56D-14 3.33D-08 XBig12= 1.59D-14 3.33D-08.
 InvSVY:  IOpt=1 It=  1 EMax= 1.33D-15
 Solved reduced A of dimension    30 with     3 vectors.
 End of Minotr F.D. properties file   721 does not exist.
 End of Minotr F.D. properties file   722 does not exist.
 End of Minotr F.D. properties file   788 does not exist.
 Symmetrizing basis deriv contribution to polar:
 IMax=3 JMax=2 DiffMx= 0.00D+00
 G2DrvN: will do     7 centers at a time, making    1 passes.
 PxScal for G2LodP:  IOpCl= 0 ISclPx=1 IMOff=     1 NMtTot=     4 NTT=    1326 ScalPx= 1.87D+00
 Calling FoFCou, ICntrl=  3107 FMM=F I1Cent=   0 AccDes= 0.00D+00.
 End of G2Drv F.D. properties file   721 does not exist.
 End of G2Drv F.D. properties file   722 does not exist.
 End of G2Drv F.D. properties file   788 does not exist.
          IDoAtm=111111
          Differentiating once with respect to electric field.
                with respect to dipole field.
          Differentiating once with respect to nuclear coordinates.
 Keep R1 ints in memory in canonical form, NReq=1726073.
          There are    21 degrees of freedom in the 1st order CPHF.  IDoFFX=5 NUNeed=    21.
 Will reuse    3 saved solutions.
     15 vectors produced by pass  0 Test12= 2.23D-15 4.76D-09 XBig12= 9.93D-02 1.32D-01.
 AX will form    15 AO Fock derivatives at one time.
     15 vectors produced by pass  1 Test12= 2.23D-15 4.76D-09 XBig12= 1.40D-02 6.59D-02.
     15 vectors produced by pass  2 Test12= 2.23D-15 4.76D-09 XBig12= 3.49D-04 3.98D-03.
     15 vectors produced by pass  3 Test12= 2.23D-15 4.76D-09 XBig12= 3.68D-06 4.38D-04.
     15 vectors produced by pass  4 Test12= 2.23D-15 4.76D-09 XBig12= 1.87D-08 3.76D-05.
     15 vectors produced by pass  5 Test12= 2.23D-15 4.76D-09 XBig12= 7.51D-11 2.03D-06.
     13 vectors produced by pass  6 Test12= 2.23D-15 4.76D-09 XBig12= 2.97D-13 1.20D-07.
      1 vectors produced by pass  7 Test12= 2.23D-15 4.76D-09 XBig12= 1.27D-15 6.07D-09.
 InvSVY:  IOpt=1 It=  1 EMax= 1.78D-15
 Solved reduced A of dimension   104 with    15 vectors.
 Isotropic polarizability for W=    0.000000       17.84 Bohr**3.
 End of Minotr F.D. properties file   721 does not exist.
 End of Minotr F.D. properties file   722 does not exist.
 End of Minotr F.D. properties file   788 does not exist.

 **********************************************************************

            Population analysis using the SCF density.

 **********************************************************************

 Orbital symmetries:
       Occupied  (A) (A) (A) (A) (A) (A) (A) (A) (A) (A) (A) (A)
       Virtual   (A) (A) (A) (A) (A) (A) (A) (A) (A) (A) (A) (A)
                 (A) (A) (A) (A) (A) (A) (A) (A) (A) (A) (A) (A)
                 (A) (A) (A) (A) (A) (A) (A) (A) (A) (A) (A) (A)
                 (A) (A) (A)
 The electronic state is 1-A.
 Alpha  occ. eigenvalues --  -20.53007 -15.59117 -11.35051  -1.39319  -1.22011
 Alpha  occ. eigenvalues --   -0.85017  -0.75334  -0.67373  -0.60709  -0.57158
 Alpha  occ. eigenvalues --   -0.42856  -0.41490
 Alpha virt. eigenvalues --    0.21169   0.22135   0.25869   0.31745   0.42816
 Alpha virt. eigenvalues --    0.54629   0.75024   0.75708   0.86322   0.92803
 Alpha virt. eigenvalues --    0.96551   0.98913   1.07214   1.12011   1.16984
 Alpha virt. eigenvalues --    1.19860   1.30835   1.33534   1.46142   1.57332
 Alpha virt. eigenvalues --    1.64175   1.74795   1.75790   1.98165   2.06493
 Alpha virt. eigenvalues --    2.15732   2.20319   2.36719   2.47684   2.63462
 Alpha virt. eigenvalues --    2.63873   2.85673   2.99712   3.04805   3.31235
 Alpha virt. eigenvalues --    3.41750   4.16832   4.30940   4.60101
     Molecular Orbital Coefficients:
                           1         2         3         4         5
                           O         O         O         O         O
     Eigenvalues --   -20.53007 -15.59117 -11.35051  -1.39319  -1.22011
   1 1   C  1S          0.00000   0.00003   0.99567  -0.12645  -0.04033
   2        2S          0.00043   0.00021   0.02650   0.24531   0.08416
   3        2PX        -0.00016  -0.00019  -0.00021   0.11936  -0.20288
   4        2PY         0.00009  -0.00009  -0.00052  -0.10378  -0.00163
   5        2PZ         0.00000   0.00000   0.00000   0.00000  -0.00001
   6        3S         -0.00050   0.00117  -0.00565   0.06397   0.01779
   7        3PX        -0.00051  -0.00057   0.00159  -0.00747  -0.00324
   8        3PY         0.00040  -0.00043  -0.00247   0.02639   0.01263
   9        3PZ         0.00000   0.00000   0.00000   0.00000   0.00000
  10        4XX        -0.00069  -0.00012  -0.00100   0.01912   0.01004
  11        4YY        -0.00025  -0.00006  -0.00171  -0.00230  -0.00088
  12        4ZZ        -0.00001  -0.00005  -0.00273  -0.01994  -0.00380
  13        4XY         0.00044  -0.00001  -0.00028  -0.02196   0.02307
  14        4XZ         0.00000   0.00000   0.00000   0.00000   0.00000
  15        4YZ         0.00000   0.00000   0.00000   0.00000   0.00000
  16 2   O  1S          0.99466   0.00001  -0.00037  -0.18349   0.07623
  17        2S          0.02107   0.00002   0.00053   0.40190  -0.16893
  18        2PX        -0.00145   0.00001  -0.00035  -0.11964   0.01583
  19        2PY         0.00085   0.00000   0.00019   0.06890  -0.03048
  20        2PZ         0.00000   0.00000   0.00000   0.00000   0.00000
  21        3S          0.00478  -0.00023  -0.00257   0.35857  -0.15706
  22        3PX        -0.00007   0.00017   0.00142  -0.04487   0.00058
  23        3PY         0.00006   0.00013  -0.00060   0.02083  -0.01102
  24        3PZ         0.00000   0.00000   0.00000   0.00000   0.00000
  25        4XX        -0.00366  -0.00001   0.00010   0.01327  -0.00129
  26        4YY        -0.00384   0.00007   0.00010   0.00228  -0.00379
  27        4ZZ        -0.00418  -0.00001   0.00026  -0.00196   0.00058
  28        4XY        -0.00023  -0.00002  -0.00007  -0.01014   0.00317
  29        4XZ         0.00000   0.00000   0.00000   0.00000   0.00000
  30        4YZ         0.00000   0.00000   0.00000   0.00000   0.00000
  31 3   H  1S         -0.00002  -0.00005  -0.00007   0.03207   0.02202
  32        2S         -0.00017   0.00003   0.00279  -0.01343   0.00053
  33 4   N  1S          0.00000   0.99485  -0.00032  -0.05191  -0.18830
  34        2S         -0.00002   0.02530   0.00018   0.10864   0.39160
  35        2PX        -0.00002   0.00001  -0.00012   0.04189   0.02151
  36        2PY         0.00003   0.00006  -0.00015   0.00780   0.02032
  37        2PZ         0.00000   0.00000   0.00000   0.00003   0.00013
  38        3S          0.00002  -0.00163   0.00090   0.09690   0.40435
  39        3PX         0.00004  -0.00040  -0.00071   0.02009   0.00572
  40        3PY        -0.00008  -0.00015   0.00084  -0.00218   0.00907
  41        3PZ         0.00000   0.00000   0.00000   0.00001   0.00007
  42        4XX        -0.00005  -0.00364  -0.00059   0.01050   0.01455
  43        4YY         0.00007  -0.00364  -0.00027   0.00283   0.01854
  44        4ZZ        -0.00004  -0.00359   0.00003  -0.00272  -0.01058
  45        4XY         0.00009   0.00001  -0.00028   0.00216  -0.00164
  46        4XZ         0.00000   0.00000   0.00000   0.00000  -0.00002
  47        4YZ         0.00000   0.00000   0.00000   0.00000   0.00000
  48 5   H  1S          0.00005   0.00023  -0.00018   0.02102   0.11789
  49        2S         -0.00004   0.00030  -0.00023  -0.00015   0.00196
  50 6   H  1S         -0.00004   0.00025   0.00020   0.02476   0.10969
  51        2S         -0.00003   0.00028   0.00030  -0.00071   0.00072
                           6         7         8         9        10
                           O         O         O         O         O
     Eigenvalues --    -0.85017  -0.75334  -0.67373  -0.60709  -0.57158
   1 1   C  1S         -0.13355  -0.01709   0.04252   0.02603  -0.00001
   2        2S          0.28765   0.04540  -0.09352  -0.07486   0.00002
   3        2PX        -0.12816  -0.10215  -0.26466  -0.20665  -0.00020
   4        2PY         0.14091  -0.23998  -0.17544   0.27792   0.00004
   5        2PZ        -0.00004  -0.00006  -0.00007  -0.00011   0.32588
   6        3S          0.20283  -0.01939  -0.12585   0.02670   0.00004
   7        3PX        -0.03693  -0.01725  -0.01364  -0.03027  -0.00004
   8        3PY         0.07727  -0.03726  -0.09467   0.08085   0.00001
   9        3PZ         0.00001  -0.00001  -0.00001  -0.00005   0.16550
  10        4XX         0.00309  -0.00248   0.01438  -0.00904  -0.00001
  11        4YY         0.01498  -0.00140  -0.01715   0.01900   0.00001
  12        4ZZ        -0.01241  -0.00252   0.00305   0.00526   0.00000
  13        4XY         0.00620   0.01409   0.00573   0.02251   0.00001
  14        4XZ         0.00001   0.00001   0.00001   0.00000   0.00530
  15        4YZ         0.00000   0.00000   0.00000   0.00001  -0.01946
  16 2   O  1S          0.06381   0.02751  -0.05615  -0.06189  -0.00002
  17        2S         -0.14672  -0.06132   0.12781   0.13817   0.00004
  18        2PX        -0.06380  -0.14150   0.10864   0.43548   0.00010
  19        2PY         0.07386  -0.09190  -0.27708  -0.14067  -0.00019
  20        2PZ        -0.00001  -0.00004  -0.00004  -0.00009   0.36225
  21        3S         -0.17529  -0.08976   0.21012   0.28744   0.00010
  22        3PX        -0.03894  -0.07687   0.05431   0.25567   0.00005
  23        3PY         0.03549  -0.05206  -0.15644  -0.07794  -0.00012
  24        3PZ        -0.00002  -0.00002  -0.00003  -0.00006   0.24371
  25        4XX         0.00050   0.01353   0.00147  -0.02909   0.00000
  26        4YY         0.00043  -0.00831  -0.01319   0.00450  -0.00001
  27        4ZZ        -0.00094  -0.00103   0.00307   0.00609   0.00000
  28        4XY        -0.00583   0.00120   0.01805   0.01588   0.00001
  29        4XZ         0.00000   0.00000   0.00000   0.00001  -0.02779
  30        4YZ         0.00000   0.00000   0.00000   0.00000   0.01673
  31 3   H  1S          0.17479  -0.10099  -0.14092   0.13523   0.00005
  32        2S          0.06195  -0.07435  -0.07643   0.11210   0.00004
  33 4   N  1S          0.04711   0.00332  -0.00782  -0.00305   0.00006
  34        2S         -0.10004  -0.00609   0.01566   0.00789  -0.00015
  35        2PX         0.23927   0.34243   0.12339   0.11249   0.00018
  36        2PY         0.20208  -0.24240   0.32274  -0.16386  -0.00004
  37        2PZ        -0.00013  -0.00015  -0.00008  -0.00017   0.32314
  38        3S         -0.14472  -0.00023   0.03788  -0.00237  -0.00020
  39        3PX         0.12410   0.19661   0.07332   0.06623   0.00015
  40        3PY         0.09408  -0.15396   0.22240  -0.10719  -0.00002
  41        3PZ        -0.00008  -0.00009  -0.00006  -0.00012   0.24030
  42        4XX         0.00367  -0.00898   0.01214  -0.01510  -0.00002
  43        4YY        -0.01805   0.00159  -0.02074   0.01330  -0.00001
  44        4ZZ         0.00335   0.00114   0.00004   0.00061   0.00003
  45        4XY         0.01319   0.01997  -0.00461   0.01439   0.00001
  46        4XZ         0.00003   0.00005   0.00000   0.00001   0.01141
  47        4YZ         0.00002  -0.00005   0.00004  -0.00003   0.00544
  48 5   H  1S         -0.08298  -0.23691   0.05510  -0.12131   0.00000
  49        2S         -0.02301  -0.08616   0.02001  -0.06766  -0.00002
  50 6   H  1S         -0.15475   0.10473  -0.18954   0.10209   0.00007
  51        2S         -0.04237   0.02636  -0.07038   0.06180   0.00004
                          11        12        13        14        15
                           O         O         V         V         V
     Eigenvalues --    -0.42856  -0.41490   0.21169   0.22135   0.25869
   1 1   C  1S          0.01096   0.00000  -0.00001  -0.00318  -0.06404
   2        2S         -0.00946   0.00004  -0.00005   0.00421   0.07263
   3        2PX        -0.02828  -0.00013   0.00019   0.05939  -0.03933
   4        2PY        -0.12134  -0.00019   0.00029   0.10183   0.19871
   5        2PZ         0.00014  -0.06370   0.45701  -0.00149   0.00012
   6        3S         -0.11938  -0.00022   0.00106   0.24815   1.16187
   7        3PX         0.09766   0.00014   0.00000   0.08429  -0.12215
   8        3PY         0.00538   0.00007   0.00041   0.15879   0.50572
   9        3PZ         0.00014  -0.06448   0.81560  -0.00299   0.00018
  10        4XX         0.04867   0.00007   0.00001   0.00341   0.00739
  11        4YY        -0.05298  -0.00007   0.00001   0.00414  -0.00950
  12        4ZZ        -0.00005  -0.00001  -0.00001  -0.00259  -0.00299
  13        4XY         0.02640   0.00005   0.00000   0.00142  -0.01523
  14        4XZ         0.00008  -0.04907  -0.01471   0.00004   0.00000
  15        4YZ        -0.00001   0.00605   0.02587  -0.00010   0.00000
  16 2   O  1S         -0.00092   0.00000  -0.00001  -0.00428   0.00130
  17        2S          0.01065   0.00001   0.00008   0.02657  -0.00315
  18        2PX         0.27829   0.00045  -0.00015  -0.05251  -0.01546
  19        2PY         0.50270   0.00069  -0.00025  -0.07776  -0.02072
  20        2PZ         0.00063  -0.39093  -0.33675   0.00111  -0.00011
  21        3S         -0.02819   0.00001  -0.00009  -0.03667  -0.01550
  22        3PX         0.21880   0.00033  -0.00015  -0.06396  -0.02641
  23        3PY         0.38111   0.00053  -0.00032  -0.11058  -0.10414
  24        3PZ         0.00049  -0.31148  -0.51440   0.00177  -0.00014
  25        4XX        -0.01492  -0.00002   0.00002   0.00716  -0.00659
  26        4YY         0.02038   0.00002   0.00001   0.00318  -0.00001
  27        4ZZ         0.00263   0.00000   0.00002   0.00517   0.00341
  28        4XY        -0.01319  -0.00002  -0.00001  -0.00255   0.00118
  29        4XZ        -0.00004   0.02201   0.00021  -0.00001   0.00000
  30        4YZ         0.00002  -0.01400   0.00313  -0.00001   0.00000
  31 3   H  1S         -0.17249  -0.00023   0.00010   0.03602  -0.03601
  32        2S         -0.22583  -0.00035  -0.00077  -0.26859  -1.36163
  33 4   N  1S         -0.03630   0.00003  -0.00041  -0.11041   0.04298
  34        2S          0.06977  -0.00010   0.00049   0.12107  -0.05396
  35        2PX         0.16795   0.00041  -0.00070  -0.18251  -0.09104
  36        2PY         0.06848   0.00008  -0.00011  -0.00947   0.20451
  37        2PZ        -0.00060   0.47231  -0.21805   0.00101  -0.00009
  38        3S          0.27971   0.00012   0.00585   1.71613  -0.67396
  39        3PX         0.14443   0.00042  -0.00205  -0.57699  -0.35489
  40        3PY         0.07365   0.00006  -0.00052  -0.04406   0.65223
  41        3PZ        -0.00053   0.44418  -0.41682   0.00238  -0.00019
  42        4XX        -0.00112  -0.00002  -0.00010  -0.02949   0.00137
  43        4YY        -0.01007  -0.00003  -0.00008  -0.02417   0.01340
  44        4ZZ        -0.00159   0.00003  -0.00012  -0.03442   0.01144
  45        4XY         0.00198   0.00000   0.00000   0.00016   0.01089
  46        4XZ         0.00001   0.00123   0.02826  -0.00011   0.00000
  47        4YZ         0.00000   0.00365   0.01666  -0.00006   0.00002
  48 5   H  1S         -0.04196   0.00005  -0.00030  -0.04720  -0.02390
  49        2S         -0.05083   0.00002  -0.00484  -1.53009  -0.73829
  50 6   H  1S         -0.03426   0.00004  -0.00027  -0.04339   0.05164
  51        2S         -0.06863  -0.00008  -0.00365  -0.93190   1.40754
                          16        17        18        19        20
                           V         V         V         V         V
     Eigenvalues --     0.31745   0.42816   0.54629   0.75024   0.75708
   1 1   C  1S          0.08889   0.03147  -0.08358  -0.00004  -0.00644
   2        2S         -0.10082   0.04327  -0.07664  -0.00135  -0.76509
   3        2PX         0.02943  -0.07394  -0.21104   0.00115   0.67253
   4        2PY        -0.19589   0.05143  -0.27992   0.00062   0.42598
   5        2PZ         0.00008   0.00000   0.00006  -1.01949   0.00175
   6        3S         -1.59999  -1.63465   2.99571   0.00248   1.16201
   7        3PX         0.30777  -2.26787  -1.91642  -0.00178  -0.79994
   8        3PY        -1.01742   1.23136  -1.81962  -0.00157  -0.87135
   9        3PZ         0.00011  -0.00014  -0.00074   1.20158  -0.00211
  10        4XX         0.01846  -0.00690  -0.00781  -0.00014  -0.04511
  11        4YY        -0.00496  -0.00310  -0.02041  -0.00017  -0.08451
  12        4ZZ        -0.00277  -0.00559   0.02271  -0.00001  -0.02385
  13        4XY        -0.00827  -0.00382  -0.01757  -0.00004  -0.00371
  14        4XZ         0.00000   0.00000  -0.00003   0.01996  -0.00004
  15        4YZ        -0.00001   0.00000  -0.00003   0.03073  -0.00006
  16 2   O  1S         -0.00458  -0.11729   0.02780   0.00003   0.01440
  17        2S          0.04636   0.01817  -0.02130  -0.00015  -0.08129
  18        2PX        -0.05443  -0.08041   0.13323   0.00005   0.00660
  19        2PY         0.08848   0.08806   0.11213   0.00014   0.07096
  20        2PZ        -0.00008   0.00002   0.00005  -0.04297   0.00009
  21        3S         -0.17125   2.68774  -0.51023  -0.00029  -0.18515
  22        3PX         0.02194  -0.83266   0.62085   0.00053   0.26117
  23        3PY         0.17872   0.58792   0.33442   0.00012   0.03728
  24        3PZ        -0.00008   0.00000   0.00020  -0.12457   0.00023
  25        4XX         0.00765  -0.02401  -0.00835  -0.00010  -0.06467
  26        4YY         0.01589  -0.06390  -0.00328   0.00002   0.01792
  27        4ZZ         0.00571  -0.09098   0.03636   0.00001  -0.00196
  28        4XY         0.00059  -0.04724   0.00347  -0.00004  -0.02144
  29        4XZ         0.00000   0.00000  -0.00002   0.07097  -0.00012
  30        4YZ         0.00000   0.00000   0.00000  -0.03937   0.00006
  31 3   H  1S         -0.00873   0.03942  -0.09732  -0.00026  -0.12185
  32        2S          1.85477  -0.30463   0.80604   0.00034   0.17774
  33 4   N  1S         -0.02073   0.00266   0.08188  -0.00005  -0.03583
  34        2S          0.03241   0.03736  -0.10566   0.00003  -0.02931
  35        2PX        -0.02188   0.01340  -0.23344  -0.00042  -0.10052
  36        2PY         0.22177  -0.03565  -0.10917  -0.00019  -0.10092
  37        2PZ         0.00004   0.00003   0.00019  -0.18976   0.00040
  38        3S          0.32011  -0.54143  -2.15767  -0.00102  -0.44381
  39        3PX        -0.17180   0.04742  -2.11702   0.00033   0.28372
  40        3PY         1.10205  -0.56912  -0.56814   0.00045   0.32900
  41        3PZ         0.00012  -0.00003   0.00021  -0.04649   0.00005
  42        4XX        -0.00461  -0.00989   0.00780  -0.00021  -0.16825
  43        4YY         0.00151   0.04142  -0.02889   0.00003   0.01082
  44        4ZZ        -0.00348  -0.00035   0.03216   0.00010   0.05173
  45        4XY        -0.01127   0.01960   0.00880  -0.00011  -0.08775
  46        4XZ         0.00000   0.00002  -0.00001  -0.05913   0.00010
  47        4YZ         0.00003  -0.00003  -0.00001  -0.02004   0.00003
  48 5   H  1S         -0.01854  -0.09104  -0.07558  -0.00010  -0.03664
  49        2S         -1.16918   0.12905  -0.78130  -0.00034  -0.02612
  50 6   H  1S          0.02402   0.10832  -0.08415   0.00007   0.05685
  51        2S          1.17322  -0.26263  -0.41516  -0.00027  -0.07813
                          21        22        23        24        25
                           V         V         V         V         V
     Eigenvalues --     0.86322   0.92803   0.96551   0.98913   1.07214
   1 1   C  1S         -0.01494  -0.07170   0.00006  -0.03990   0.01540
   2        2S         -0.55194   0.17284  -0.00031   0.41393   1.15186
   3        2PX        -0.07572  -0.18578   0.00047   0.75820   0.23232
   4        2PY        -0.30464  -0.21483  -0.00014  -0.69309   0.42717
   5        2PZ        -0.00005   0.00049   0.22176  -0.00004   0.00001
   6        3S          1.49186  -1.03661   0.00193   0.21348  -1.29714
   7        3PX         0.46802   0.52507  -0.00095  -0.53356  -0.08610
   8        3PY         1.08842   0.73310  -0.00023   1.28334  -1.73983
   9        3PZ        -0.00008  -0.00051  -0.63061   0.00021  -0.00013
  10        4XX         0.01459  -0.16102   0.00007  -0.08366   0.24200
  11        4YY        -0.16158  -0.01357  -0.00001   0.03121  -0.01642
  12        4ZZ         0.01395   0.07027  -0.00002   0.06418   0.05813
  13        4XY        -0.05397  -0.07819   0.00009   0.15992  -0.06710
  14        4XZ        -0.00003   0.00012   0.05882  -0.00002   0.00003
  15        4YZ        -0.00005   0.00005  -0.00010   0.00001  -0.00003
  16 2   O  1S          0.00623   0.00119   0.00002   0.04570   0.01642
  17        2S          0.01214  -0.16170   0.00019  -0.17335  -0.32706
  18        2PX        -0.22743   0.06683  -0.00001   0.21061  -0.21014
  19        2PY        -0.18560  -0.05077   0.00000  -0.19484   0.14240
  20        2PZ         0.00000  -0.00001   0.03925  -0.00001  -0.00007
  21        3S         -0.31721   0.45248  -0.00057   0.31766   0.06671
  22        3PX         0.08217  -0.14177   0.00034   0.31751   0.72909
  23        3PY        -0.21819   0.03250  -0.00014  -0.33112  -0.28900
  24        3PZ         0.00005  -0.00001   0.05808  -0.00001   0.00009
  25        4XX        -0.02750   0.01350   0.00007   0.12226  -0.20215
  26        4YY        -0.00365  -0.07425   0.00009  -0.01795  -0.07696
  27        4ZZ         0.03942  -0.05276   0.00006  -0.09045  -0.11659
  28        4XY         0.01129  -0.00793  -0.00003  -0.13073  -0.03174
  29        4XZ         0.00000  -0.00005  -0.03595   0.00002  -0.00002
  30        4YZ        -0.00001   0.00003  -0.00678   0.00000  -0.00001
  31 3   H  1S         -0.63296  -0.20095   0.00028   0.03075  -0.42050
  32        2S         -0.54903  -0.18634  -0.00024  -0.78263   1.82228
  33 4   N  1S         -0.01557   0.05639  -0.00011  -0.01215   0.01749
  34        2S         -0.06413  -0.16712   0.00045   0.02782   0.21012
  35        2PX         0.07250  -0.46846   0.00022   0.09524   0.07720
  36        2PY        -0.01690  -0.22531   0.00030   0.03387   0.05212
  37        2PZ         0.00021  -0.00146  -0.98279   0.00038  -0.00017
  38        3S          0.40829   0.28478  -0.00033   0.04356  -0.60281
  39        3PX        -0.27800   1.34587  -0.00166   0.10971  -0.53933
  40        3PY         0.10984   0.63706  -0.00108  -0.12604   0.26291
  41        3PZ         0.00014   0.00100   1.24982  -0.00045   0.00020
  42        4XX        -0.09574   0.07882   0.00001   0.02363  -0.01836
  43        4YY         0.01719   0.12648  -0.00021  -0.06520   0.11898
  44        4ZZ         0.02347  -0.13629   0.00034   0.02649   0.00810
  45        4XY         0.10731  -0.01058   0.00009  -0.07111   0.08013
  46        4XZ         0.00008  -0.00010  -0.03262   0.00000   0.00005
  47        4YZ        -0.00011  -0.00003  -0.01857   0.00001  -0.00012
  48 5   H  1S         -0.52188   0.52368  -0.00109   0.03856  -0.18349
  49        2S          0.13960   0.08389  -0.00030  -0.13432   0.01641
  50 6   H  1S          0.18303   0.68237  -0.00130  -0.10390   0.27485
  51        2S         -0.12687   0.08879  -0.00016   0.27668  -0.18284
                          26        27        28        29        30
                           V         V         V         V         V
     Eigenvalues --     1.12011   1.16984   1.19860   1.30835   1.33534
   1 1   C  1S          0.07008   0.01811   0.00795   0.00000   0.01081
   2        2S         -0.36335  -0.39088   0.09613  -0.00001   0.42067
   3        2PX         0.01896   0.09737  -0.07827   0.00004   0.03551
   4        2PY        -0.44376   0.02573   0.08468  -0.00004   0.23897
   5        2PZ        -0.00001   0.00001   0.00001   0.11602  -0.00007
   6        3S          1.34260   2.10251  -0.29781  -0.00016  -2.07864
   7        3PX         0.10163  -0.79149   0.21841   0.00035   0.25230
   8        3PY         0.42232  -0.68823  -0.42105  -0.00053  -0.78240
   9        3PZ         0.00004  -0.00019  -0.00020  -0.60365   0.00005
  10        4XX         0.10378   0.12403  -0.02112  -0.00005  -0.10681
  11        4YY         0.11851  -0.03948   0.04125   0.00004   0.16736
  12        4ZZ        -0.16161  -0.04685  -0.00374   0.00000   0.00823
  13        4XY        -0.18928   0.06179   0.00281   0.00004  -0.08328
  14        4XZ         0.00001   0.00017  -0.00004  -0.09020  -0.00007
  15        4YZ         0.00000   0.00008  -0.00003  -0.00443  -0.00006
  16 2   O  1S         -0.01421   0.00559  -0.00953   0.00002  -0.00331
  17        2S         -0.36114   0.13581  -0.00672   0.00006  -0.06085
  18        2PX        -0.49820  -0.04759  -0.16314   0.00025  -0.37468
  19        2PY         0.34954   0.00742  -0.00802  -0.00005  -0.58390
  20        2PZ        -0.00003  -0.00011  -0.00042  -0.96480   0.00005
  21        3S          0.33602  -0.55992  -0.02960  -0.00046   0.23855
  22        3PX         0.82164   0.22103   0.09124  -0.00016   0.50680
  23        3PY        -0.48295  -0.03045   0.05101   0.00011   0.95014
  24        3PZ         0.00004   0.00007   0.00047   1.27059  -0.00003
  25        4XX        -0.19994  -0.01697  -0.06361   0.00008   0.07602
  26        4YY        -0.22983   0.04201   0.00126   0.00002  -0.06859
  27        4ZZ        -0.13119   0.08100  -0.00491   0.00004  -0.06806
  28        4XY         0.10977  -0.01158  -0.01078   0.00000   0.05254
  29        4XZ         0.00000  -0.00003  -0.00003   0.02982   0.00002
  30        4YZ         0.00000   0.00001  -0.00003  -0.03959  -0.00002
  31 3   H  1S          0.63148  -0.02509  -0.13484   0.00035   0.09711
  32        2S         -1.11767   0.11856   0.32399   0.00007   0.77228
  33 4   N  1S         -0.00098   0.03710   0.00042  -0.00001  -0.04986
  34        2S          0.07430  -0.40427   0.11105  -0.00012  -0.92586
  35        2PX        -0.01591   0.80593   0.36156  -0.00013  -0.02061
  36        2PY        -0.01226   0.21834  -1.01340   0.00032   0.04316
  37        2PZ         0.00006  -0.00076  -0.00014  -0.05423  -0.00014
  38        3S         -0.26970  -0.03197  -0.18968   0.00039   2.54261
  39        3PX         0.00661  -1.71456  -0.60143   0.00001   0.37552
  40        3PY         0.02918  -0.47236   1.65435   0.00003   0.23298
  41        3PZ        -0.00015   0.00084   0.00026   0.18952   0.00053
  42        4XX        -0.02046  -0.13027   0.10394  -0.00009  -0.22587
  43        4YY         0.04015   0.03942  -0.06201   0.00001  -0.20347
  44        4ZZ         0.00062  -0.15761   0.02215   0.00002  -0.07706
  45        4XY        -0.01107  -0.11733  -0.05117   0.00006  -0.00171
  46        4XZ         0.00003  -0.00020  -0.00002   0.02518   0.00007
  47        4YZ        -0.00004  -0.00003   0.00006  -0.04586   0.00001
  48 5   H  1S         -0.06456   0.59625   0.29039  -0.00045  -0.05418
  49        2S          0.13051  -1.20117  -1.10621   0.00043  -0.35672
  50 6   H  1S          0.10729   0.52435  -0.40222   0.00035  -0.07922
  51        2S         -0.02040  -0.90857   1.35844  -0.00052  -0.32851
                          31        32        33        34        35
                           V         V         V         V         V
     Eigenvalues --     1.46142   1.57332   1.64175   1.74795   1.75790
   1 1   C  1S          0.00361  -0.01224   0.00002  -0.00087  -0.03728
   2        2S          0.37153   0.08606  -0.00039  -0.00721  -0.34017
   3        2PX        -0.10830   0.05707  -0.00009  -0.00279  -0.13283
   4        2PY        -0.09589  -0.01523   0.00001   0.00129   0.06526
   5        2PZ        -0.00011  -0.00053  -0.09328   0.15383  -0.00362
   6        3S         -2.93924  -1.09761   0.00483  -0.05085  -2.03081
   7        3PX         1.95791   0.22559  -0.00078  -0.05156  -2.31166
   8        3PY         1.63687  -1.68363   0.00254   0.05312   2.52195
   9        3PZ         0.00025   0.00064   0.01463  -0.20728   0.00452
  10        4XX        -0.00207  -0.11592   0.00036  -0.00153  -0.05758
  11        4YY         0.00892   0.10589  -0.00015   0.00237   0.10793
  12        4ZZ        -0.01180   0.01476  -0.00022  -0.00149  -0.07937
  13        4XY        -0.02136   0.14077  -0.00023   0.00593   0.25648
  14        4XZ        -0.00018  -0.00042  -0.50222  -0.26809   0.00613
  15        4YZ        -0.00016  -0.00164  -0.33621   0.56913  -0.01331
  16 2   O  1S         -0.00729  -0.00457   0.00004  -0.00274  -0.11928
  17        2S         -0.08759  -0.55643   0.00171  -0.03951  -1.64844
  18        2PX         0.26242   0.38771  -0.00087   0.00195   0.03388
  19        2PY         0.49133  -0.18920   0.00029  -0.00214  -0.06984
  20        2PZ         0.00013   0.00057   0.12955   0.08939  -0.00227
  21        3S          0.43372   0.68971  -0.00333   0.13900   5.97944
  22        3PX        -0.72836  -0.55297   0.00178  -0.03605  -1.50421
  23        3PY        -0.94111   0.59360  -0.00124   0.01880   0.75677
  24        3PZ        -0.00014  -0.00104  -0.01192   0.17486  -0.00375
  25        4XX        -0.00933  -0.12139   0.00041  -0.01237  -0.51836
  26        4YY         0.06621  -0.18502   0.00053  -0.00686  -0.25907
  27        4ZZ        -0.13475  -0.02362   0.00017  -0.01241  -0.55513
  28        4XY         0.00486  -0.01012  -0.00001   0.00354   0.16385
  29        4XZ         0.00002  -0.00047   0.02718   0.36752  -0.00871
  30        4YZ        -0.00006  -0.00045  -0.26673  -0.02401   0.00052
  31 3   H  1S         -0.03992   0.62844  -0.00134  -0.00701  -0.39236
  32        2S         -0.40482   0.71458  -0.00147  -0.01583  -0.79112
  33 4   N  1S         -0.08183  -0.00227   0.00007  -0.00014  -0.00475
  34        2S         -1.48229   0.04594   0.00060  -0.00179  -0.07343
  35        2PX        -0.10240   0.21508  -0.00035  -0.00042  -0.05002
  36        2PY        -0.15198  -0.23360   0.00055   0.00380   0.19811
  37        2PZ        -0.00020  -0.00021  -0.12883  -0.04754   0.00103
  38        3S          5.31993  -0.00406  -0.00267   0.00414   0.12587
  39        3PX         1.22399  -1.09308   0.00160   0.00661   0.40643
  40        3PY         0.62861   1.92176  -0.00412  -0.02742  -1.43938
  41        3PZ         0.00087   0.00012  -0.01646   0.09525  -0.00204
  42        4XX        -0.28067  -0.09044   0.00032   0.00411   0.21487
  43        4YY        -0.29695   0.14547   0.00016  -0.00128  -0.08484
  44        4ZZ        -0.15432  -0.02670  -0.00020  -0.00340  -0.15561
  45        4XY         0.02775   0.11682  -0.00064  -0.00224  -0.13379
  46        4XZ         0.00025   0.00195   0.52033  -0.17223   0.00366
  47        4YZ        -0.00006  -0.00189   0.16958   0.50190  -0.01050
  48 5   H  1S         -0.17945  -0.66984   0.00168   0.00227   0.17220
  49        2S         -0.41937  -0.60654   0.00143   0.00078   0.12113
  50 6   H  1S         -0.10911   0.59424  -0.00086  -0.00589  -0.31880
  51        2S         -0.33158   0.44105  -0.00087  -0.00752  -0.39176
                          36        37        38        39        40
                           V         V         V         V         V
     Eigenvalues --     1.98165   2.06493   2.15732   2.20319   2.36719
   1 1   C  1S          0.00008   0.03204  -0.00001   0.01202  -0.04476
   2        2S          0.00117   0.18636   0.00009   0.13541  -0.08683
   3        2PX         0.00005  -0.18128   0.00011   0.01859   0.09480
   4        2PY        -0.00058  -0.06730   0.00003   0.19204   0.01080
   5        2PZ        -0.11937   0.00025  -0.15232   0.00008   0.00002
   6        3S         -0.00732  -2.32330   0.00002  -0.49142   0.10461
   7        3PX         0.00212  -0.28198   0.00039   0.30647   0.23648
   8        3PY        -0.00066   1.29767   0.00035   1.15192   0.09315
   9        3PZ         0.03531   0.00023  -0.12922  -0.00001  -0.00033
  10        4XX        -0.00017  -0.12421  -0.00005  -0.34287   0.20518
  11        4YY        -0.00123  -0.31739   0.00017   0.42111   0.16760
  12        4ZZ         0.00158   0.54019  -0.00011   0.04408  -0.60689
  13        4XY        -0.00065  -0.03753  -0.00029  -0.23969  -0.06654
  14        4XZ         0.08730  -0.00033   0.10104   0.00006   0.00047
  15        4YZ        -0.32420   0.00035  -0.16540   0.00020   0.00055
  16 2   O  1S         -0.00001  -0.04091   0.00000  -0.01176  -0.00490
  17        2S         -0.00151  -0.55978  -0.00010  -0.17518   0.00013
  18        2PX         0.00081  -0.07004   0.00025   0.17253   0.10526
  19        2PY        -0.00033   0.02826   0.00001   0.23816  -0.13669
  20        2PZ        -0.11675   0.00029  -0.07338   0.00002  -0.00007
  21        3S          0.00291   2.34032  -0.00007   0.67688  -0.20150
  22        3PX        -0.00161  -0.64305  -0.00017  -0.44639   0.04558
  23        3PY         0.00067   0.19770  -0.00018  -0.37895   0.05134
  24        3PZ         0.04558  -0.00028   0.08980  -0.00003   0.00017
  25        4XX        -0.00084  -0.44663   0.00014   0.37968  -0.24175
  26        4YY        -0.00164  -0.43098  -0.00055  -0.64588  -0.27320
  27        4ZZ         0.00174   0.51863   0.00032   0.14255   0.40607
  28        4XY        -0.00093  -0.30875  -0.00011   0.20422  -0.44029
  29        4XZ        -0.40537   0.00097   0.25477  -0.00019  -0.00043
  30        4YZ        -0.06751   0.00011   0.84589  -0.00055  -0.00051
  31 3   H  1S          0.00219   0.23430  -0.00024  -0.62531  -0.13851
  32        2S          0.00095  -0.28478  -0.00008  -0.24604  -0.08315
  33 4   N  1S         -0.00004  -0.00406  -0.00003  -0.02449  -0.03184
  34        2S         -0.00050  -0.17132  -0.00004   0.18055  -0.44200
  35        2PX         0.00050   0.00144   0.00017   0.28718  -0.21276
  36        2PY        -0.00033   0.11005  -0.00001   0.14238  -0.04517
  37        2PZ         0.01755  -0.00001  -0.05890   0.00010   0.00007
  38        3S          0.00357   0.90220   0.00079   0.63092   1.14843
  39        3PX         0.00122   0.90013  -0.00021  -0.01400   0.20838
  40        3PY         0.00201  -0.52430  -0.00023  -0.31357  -0.09832
  41        3PZ        -0.03466  -0.00023   0.16057   0.00022   0.00068
  42        4XX        -0.00155  -0.05857  -0.00023  -0.06793   0.22695
  43        4YY         0.00061  -0.21788   0.00065   0.17539   0.31929
  44        4ZZ         0.00103   0.31190  -0.00041  -0.02593  -0.68327
  45        4XY         0.00128  -0.06084  -0.00021  -0.26857  -0.12173
  46        4XZ        -0.33399   0.00118   0.36051  -0.00018   0.00005
  47        4YZ         0.75828  -0.00259   0.27626  -0.00022   0.00001
  48 5   H  1S          0.00017   0.26074  -0.00014  -0.17072  -0.37508
  49        2S         -0.00020   0.27340  -0.00016   0.02627   0.01722
  50 6   H  1S          0.00010  -0.08675  -0.00046  -0.22423  -0.43221
  51        2S          0.00069  -0.09467  -0.00007  -0.02662  -0.11687
                          41        42        43        44        45
                           V         V         V         V         V
     Eigenvalues --     2.47684   2.63462   2.63873   2.85673   2.99712
   1 1   C  1S         -0.01469   0.00278  -0.04692   0.08369  -0.00003
   2        2S          0.05153   0.01698  -0.29119  -0.26358   0.00067
   3        2PX         0.09128  -0.02320   0.39875   0.48287  -0.00084
   4        2PY        -0.22085  -0.00813   0.13783   0.26892  -0.00050
   5        2PZ         0.00035  -0.22671  -0.01327   0.00030   0.22105
   6        3S         -0.77434   0.00950  -0.17842  -2.11485   0.00375
   7        3PX        -0.28928   0.00943  -0.16535   0.93329  -0.00161
   8        3PY         0.88821  -0.04926   0.85680   0.87117  -0.00147
   9        3PZ         0.00034  -0.38360  -0.02218   0.00029   0.16383
  10        4XX         0.25034  -0.01048   0.17962  -0.27471   0.00028
  11        4YY        -0.39364  -0.00146   0.01155  -0.33321   0.00050
  12        4ZZ         0.15646   0.02888  -0.47786   0.77747  -0.00064
  13        4XY        -0.54477  -0.00026  -0.00276   0.30564   0.00145
  14        4XZ         0.00003   0.34613   0.02016   0.00033   0.99369
  15        4YZ        -0.00039   0.70976   0.04160  -0.00039  -0.33192
  16 2   O  1S         -0.01011  -0.00014   0.00231  -0.00619   0.00005
  17        2S         -0.65595   0.01831  -0.31907   0.30124   0.00070
  18        2PX         0.34918  -0.01006   0.17252  -0.29560  -0.00041
  19        2PY        -0.23169   0.00283  -0.04949   0.20269   0.00017
  20        2PZ         0.00013  -0.06811  -0.00392  -0.00002  -0.04558
  21        3S          1.42481  -0.04012   0.70414   0.07256  -0.00168
  22        3PX        -0.48746   0.01966  -0.34161  -0.09934   0.00093
  23        3PY         0.21028   0.00497  -0.08440  -0.37194  -0.00006
  24        3PZ        -0.00041   0.28172   0.01639  -0.00030  -0.40890
  25        4XX        -0.04422  -0.01422   0.24646   0.33730  -0.00010
  26        4YY        -0.02112   0.02858  -0.48503  -0.26681   0.00014
  27        4ZZ        -0.26990  -0.01054   0.17286   0.08355   0.00051
  28        4XY         0.09121  -0.00378   0.07082   0.27383   0.00009
  29        4XZ         0.00087  -0.57062  -0.03332   0.00058   0.77974
  30        4YZ        -0.00032  -0.07863  -0.00456  -0.00033  -0.57384
  31 3   H  1S          0.26532   0.01251  -0.20590   0.25461  -0.00037
  32        2S         -0.38908   0.02214  -0.38529  -0.25497   0.00045
  33 4   N  1S         -0.01970  -0.00047   0.00800  -0.08075   0.00015
  34        2S          0.00077   0.00356  -0.06144  -0.57383   0.00038
  35        2PX         0.13656   0.00082  -0.01128   0.01056  -0.00051
  36        2PY        -0.02561   0.00127  -0.02092  -0.00353  -0.00022
  37        2PZ         0.00007   0.01253   0.00067   0.00011   0.05539
  38        3S          0.51472  -0.00077   0.01942   2.80933  -0.00418
  39        3PX         0.43571  -0.05694   0.98278   1.31173  -0.00212
  40        3PY        -1.13116   0.01786  -0.31980   0.37268  -0.00074
  41        3PZ        -0.00016   0.32015   0.01812   0.00032   0.06461
  42        4XX        -0.44048  -0.00429   0.07065   0.47811  -0.00175
  43        4YY         0.65783   0.02465  -0.41983   0.12673   0.00081
  44        4ZZ        -0.20405  -0.01807   0.31185  -0.82090   0.00116
  45        4XY         0.24765  -0.04967   0.84962   0.43536  -0.00029
  46        4XZ         0.00031   0.72775   0.04355   0.00006   0.30278
  47        4YZ        -0.00199   0.20222   0.01103   0.00001   0.24818
  48 5   H  1S          0.48892  -0.04880   0.84600  -0.16202   0.00063
  49        2S          0.20145  -0.00975   0.16836   0.10287  -0.00040
  50 6   H  1S         -0.92903  -0.00708   0.11649  -0.37128  -0.00002
  51        2S         -0.20807   0.00244  -0.04658   0.07135  -0.00004
                          46        47        48        49        50
                           V         V         V         V         V
     Eigenvalues --     3.04805   3.31235   3.41750   4.16832   4.30940
   1 1   C  1S          0.00585  -0.08454   0.00647  -0.10464   0.01053
   2        2S          0.38255  -0.83714  -1.20768   0.93409  -0.30509
   3        2PX        -0.37348  -1.01027  -0.66562  -0.20082  -0.07665
   4        2PY        -0.28015   0.55492   0.44894  -0.03766  -0.10648
   5        2PZ        -0.00043  -0.00001  -0.00006  -0.00006  -0.00005
   6        3S          1.53195  -0.77268  -1.30159  -0.24791  -2.50125
   7        3PX        -0.78001  -0.52739  -0.49409   0.96980  -1.06516
   8        3PY        -0.25795   0.62855   0.17000   0.01675   1.45041
   9        3PZ        -0.00045  -0.00001  -0.00002   0.00007   0.00001
  10        4XX         0.34428   0.33330  -1.01858  -0.33439   0.36318
  11        4YY         0.06254  -0.71390   0.81715  -0.47843   0.09066
  12        4ZZ        -0.23077   0.08719   0.46509  -0.44410   0.17781
  13        4XY         0.96665   0.55303   0.29397   0.16658   0.02413
  14        4XZ        -0.00129   0.00014  -0.00022   0.00009   0.00004
  15        4YZ         0.00081  -0.00010   0.00018   0.00004   0.00003
  16 2   O  1S          0.02783  -0.03383  -0.02013   0.18281  -0.50835
  17        2S          0.39650  -0.65765  -0.26746   0.12583  -0.28793
  18        2PX        -0.28908  -0.16159  -0.30530  -0.13526   0.23203
  19        2PY         0.11265   0.04836   0.25018   0.09412  -0.13368
  20        2PZ         0.00006  -0.00002   0.00001  -0.00001   0.00000
  21        3S         -0.70194   2.41809   1.76083  -1.96770   6.03136
  22        3PX         0.41745  -1.37711  -0.77172   0.26132  -1.18237
  23        3PY        -0.18786   0.49889   0.80275  -0.28791   0.53425
  24        3PZ         0.00068  -0.00010   0.00004   0.00000  -0.00003
  25        4XX         0.13357   1.12617   0.21352   0.57636  -1.51876
  26        4YY        -0.11313  -0.48793   0.42330   0.57130  -1.74652
  27        4ZZ         0.33179  -0.55393  -0.35579   0.67030  -1.70519
  28        4XY         0.19340  -0.60180  -1.00436   0.02651  -0.10033
  29        4XZ        -0.00123   0.00018  -0.00013  -0.00001  -0.00001
  30        4YZ         0.00081  -0.00008   0.00004  -0.00002  -0.00002
  31 3   H  1S         -0.11418   0.26721  -0.24156   0.08295   0.00669
  32        2S          0.01070  -0.33785   0.24823  -0.04538  -0.34196
  33 4   N  1S          0.05635   0.00838  -0.02482  -0.44659  -0.17843
  34        2S          0.03509  -0.08806   0.12854   0.93275   0.39865
  35        2PX        -0.33858  -0.13771   0.18105  -0.07044  -0.03285
  36        2PY        -0.14279  -0.09934   0.11567  -0.03729   0.02107
  37        2PZ        -0.00017  -0.00004   0.00002  -0.00015  -0.00008
  38        3S         -1.50579  -0.00126   0.16732   3.61571   1.58807
  39        3PX        -0.78059  -0.21353   0.30510   0.31500   0.33604
  40        3PY        -0.73928  -0.05170  -0.12485   0.27035  -0.54247
  41        3PZ        -0.00012   0.00010  -0.00007   0.00051   0.00019
  42        4XX        -1.01749  -0.01216  -0.17561  -1.41801  -0.69177
  43        4YY         0.73997  -0.13048   0.24420  -1.42508  -0.62017
  44        4ZZ         0.30431   0.08620  -0.10962  -1.45946  -0.49059
  45        4XY        -0.08183  -0.42738   0.61853  -0.00078  -0.00714
  46        4XZ        -0.00028  -0.00025   0.00036   0.00004   0.00013
  47        4YZ        -0.00101   0.00016  -0.00031   0.00006  -0.00021
  48 5   H  1S          0.35331  -0.21449   0.36614   0.11906   0.22885
  49        2S         -0.09297  -0.05667  -0.04861  -0.49598  -0.16770
  50 6   H  1S         -0.48522   0.12321  -0.25585   0.16973  -0.03897
  51        2S         -0.06349  -0.04700   0.06789  -0.46323  -0.37985
                          51
                           V
     Eigenvalues --     4.60101
   1 1   C  1S         -0.46183
   2        2S          2.71158
   3        2PX        -0.10575
   4        2PY         0.24138
   5        2PZ         0.00004
   6        3S          0.45655
   7        3PX        -0.64066
   8        3PY         0.75316
   9        3PZ        -0.00002
  10        4XX        -2.30983
  11        4YY        -1.79203
  12        4ZZ        -1.56956
  13        4XY         0.06911
  14        4XZ        -0.00011
  15        4YZ        -0.00001
  16 2   O  1S         -0.10970
  17        2S         -0.06322
  18        2PX        -0.21244
  19        2PY         0.15201
  20        2PZ        -0.00001
  21        3S          1.91256
  22        3PX        -0.69164
  23        3PY         0.40367
  24        3PZ         0.00000
  25        4XX        -0.08766
  26        4YY        -0.22308
  27        4ZZ        -0.45871
  28        4XY        -0.27433
  29        4XZ        -0.00001
  30        4YZ         0.00001
  31 3   H  1S          0.14608
  32        2S         -0.62902
  33 4   N  1S          0.09747
  34        2S         -0.19055
  35        2PX         0.25315
  36        2PY         0.14046
  37        2PZ         0.00008
  38        3S         -0.83740
  39        3PX         0.24965
  40        3PY        -0.24149
  41        3PZ        -0.00013
  42        4XX         0.61208
  43        4YY         0.41099
  44        4ZZ         0.26848
  45        4XY         0.24756
  46        4XZ         0.00013
  47        4YZ        -0.00008
  48 5   H  1S          0.05200
  49        2S          0.18657
  50 6   H  1S         -0.12950
  51        2S          0.08231
     Density Matrix:
                           1         2         3         4         5
   1 1   C  1S          2.05940
   2        2S         -0.10649   0.33442
   3        2PX        -0.01040   0.02237   0.39163
   4        2PY        -0.00721   0.00156  -0.02634   0.42192
   5        2PZ        -0.00001   0.00001  -0.00001   0.00000   0.22051
   6        3S         -0.09431   0.17081   0.02235   0.14111   0.00002
   7        3PX         0.01517  -0.02170   0.02673  -0.03631   0.00000
   8        3PY        -0.03570   0.06152   0.00537   0.11100   0.00000
   9        3PZ        -0.00001   0.00002  -0.00003  -0.00001   0.11608
  10        4XX        -0.00656   0.01031  -0.00643  -0.02382   0.00000
  11        4YY        -0.00834   0.00849   0.00048   0.03481   0.00000
  12        4ZZ         0.00384  -0.01929  -0.00331   0.00373   0.00000
  13        4XY         0.00324  -0.00700  -0.03290   0.00356   0.00000
  14        4XZ         0.00000   0.00000   0.00000   0.00000   0.00971
  15        4YZ         0.00000   0.00000   0.00000   0.00000  -0.01345
  16 2   O  1S          0.01351  -0.01736  -0.04167   0.02832   0.00000
  17        2S         -0.02737   0.03402   0.08925  -0.06541   0.00000
  18        2PX         0.08817  -0.19640  -0.24296   0.21111  -0.00001
  19        2PY        -0.05104   0.12621   0.20503  -0.05224   0.00001
  20        2PZ         0.00001  -0.00002  -0.00001   0.00001   0.28590
  21        3S         -0.00103  -0.04145  -0.01584   0.01266  -0.00001
  22        3PX         0.04987  -0.10380  -0.13205   0.10519   0.00000
  23        3PY        -0.02228   0.05774   0.10445  -0.05022   0.00000
  24        3PZ         0.00001  -0.00002   0.00001   0.00000   0.19852
  25        4XX        -0.00536   0.01217   0.01289  -0.02217   0.00000
  26        4YY        -0.00034   0.00139   0.00763   0.00583   0.00000
  27        4ZZ         0.00189  -0.00303  -0.00454   0.00230   0.00000
  28        4XY         0.00576  -0.01320  -0.01783   0.00557   0.00000
  29        4XZ         0.00000   0.00000   0.00000   0.00000  -0.02091
  30        4YZ         0.00000   0.00000   0.00000   0.00000   0.01269
  31 3   H  1S         -0.06198   0.12020   0.00301   0.25747   0.00001
  32        2S         -0.01072   0.02433   0.00279   0.19986   0.00000
  33 4   N  1S          0.01342  -0.02676   0.05833   0.03275   0.00003
  34        2S         -0.02851   0.05570  -0.12158  -0.06715  -0.00007
  35        2PX        -0.06815   0.14982  -0.25132  -0.12722   0.00001
  36        2PY        -0.02918   0.06436  -0.11564  -0.04933  -0.00002
  37        2PZ        -0.00002   0.00005  -0.00008  -0.00004   0.15043
  38        3S         -0.00744   0.02035  -0.13868  -0.14460  -0.00007
  39        3PX        -0.03397   0.07367  -0.14386  -0.08754   0.00002
  40        3PY        -0.00343   0.01370  -0.07445  -0.05465   0.00000
  41        3PZ        -0.00002   0.00005  -0.00009  -0.00005   0.10002
  42        4XX        -0.00546   0.00887  -0.00262  -0.00926  -0.00001
  43        4YY         0.00072  -0.00366   0.00351   0.01062   0.00000
  44        4ZZ         0.00067  -0.00115   0.00237   0.00171   0.00001
  45        4XY        -0.00478   0.00884  -0.00990   0.00282   0.00000
  46        4XZ        -0.00001   0.00002  -0.00002  -0.00001   0.00728
  47        4YZ         0.00000   0.00000  -0.00001   0.00000   0.00308
  48 5   H  1S          0.01254  -0.03045   0.05020   0.00899   0.00003
  49        2S          0.00558  -0.01347   0.04292   0.00260   0.00000
  50 6   H  1S          0.01149  -0.02808   0.03974   0.03219   0.00003
  51        2S          0.00686  -0.01698   0.02061   0.05125   0.00001
                           6         7         8         9        10
   6        3S          0.15352
   7        3PX        -0.03691   0.02474
   8        3PY         0.06351  -0.00617   0.04750
   9        3PZ         0.00002   0.00000  -0.00001   0.06310
  10        4XX        -0.01156   0.00916  -0.00173   0.00000   0.00628
  11        4YY         0.02381  -0.01205   0.00803   0.00000  -0.00600
  12        4ZZ        -0.00807   0.00091  -0.00259   0.00000  -0.00091
  13        4XY        -0.00656   0.00287   0.00217   0.00000   0.00192
  14        4XZ         0.00001   0.00000  -0.00001   0.00808   0.00000
  15        4YZ         0.00000   0.00000   0.00000  -0.00722   0.00000
  16 2   O  1S          0.01412   0.00068   0.00145   0.00000  -0.00718
  17        2S         -0.03909  -0.00175  -0.00289   0.00000   0.01355
  18        2PX        -0.10567   0.03631   0.04761   0.00001   0.01839
  19        2PY        -0.01655   0.11115   0.05625   0.00001   0.04643
  20        2PZ         0.00005  -0.00001  -0.00004   0.17032   0.00000
  21        3S         -0.05812  -0.01695   0.00097  -0.00001   0.00802
  22        3PX        -0.07081   0.03198   0.03076   0.00001   0.01667
  23        3PY        -0.03709   0.08236   0.03131   0.00001   0.03506
  24        3PZ         0.00004  -0.00001  -0.00004   0.12084   0.00000
  25        4XX         0.00297  -0.00188  -0.00541   0.00000  -0.00046
  26        4YY        -0.00065   0.00432   0.00415   0.00000   0.00158
  27        4ZZ        -0.00165   0.00020   0.00027   0.00000   0.00017
  28        4XY        -0.00414  -0.00351  -0.00244   0.00000  -0.00142
  29        4XZ         0.00000   0.00000   0.00000  -0.01203   0.00000
  30        4YZ         0.00000   0.00000   0.00000   0.00734   0.00000
  31 3   H  1S          0.16358  -0.04808   0.08348   0.00000  -0.02004
  32        2S          0.10543  -0.05062   0.04457  -0.00001  -0.02596
  33 4   N  1S          0.01844  -0.00942  -0.00071   0.00001  -0.00944
  34        2S         -0.03263   0.01614  -0.00034  -0.00002   0.01852
  35        2PX         0.02476  -0.00763   0.01085   0.00004   0.01968
  36        2PY        -0.01324   0.00768  -0.03665   0.00001   0.02207
  37        2PZ        -0.00006   0.00002   0.00005   0.04605   0.00001
  38        3S         -0.10837   0.06038  -0.01157  -0.00001   0.03929
  39        3PX        -0.00390   0.00591   0.00412   0.00003   0.01565
  40        3PY        -0.03512   0.01315  -0.03253   0.00001   0.01694
  41        3PZ        -0.00006   0.00002   0.00005   0.02226   0.00001
  42        4XX         0.00010   0.00015  -0.00259   0.00000   0.00128
  43        4YY         0.00197  -0.00109   0.00368   0.00000  -0.00145
  44        4ZZ         0.00099  -0.00052   0.00010   0.00000  -0.00047
  45        4XY         0.00625  -0.00204   0.00385   0.00000  -0.00017
  46        4XZ         0.00001   0.00000   0.00000   0.00362   0.00000
  47        4YZ         0.00000   0.00000  -0.00001   0.00133   0.00000
  48 5   H  1S         -0.02792   0.01087  -0.02159  -0.00001   0.00353
  49        2S         -0.00246  -0.00172  -0.01237  -0.00002  -0.00283
  50 6   H  1S          0.00157  -0.00096   0.02438   0.00000  -0.00896
  51        2S          0.01912  -0.01300   0.01405   0.00000  -0.01023
                          11        12        13        14        15
  11        4YY         0.00740
  12        4ZZ        -0.00016   0.00123
  13        4XY        -0.00193   0.00075   0.00498
  14        4XZ         0.00000   0.00000   0.00000   0.00487
  15        4YZ         0.00000   0.00000   0.00000  -0.00080   0.00083
  16 2   O  1S          0.00171   0.00401   0.01054   0.00000   0.00000
  17        2S         -0.00605  -0.00857  -0.02073   0.00000   0.00000
  18        2PX        -0.01765   0.01217   0.03675   0.00000   0.00000
  19        2PY        -0.04690  -0.00711   0.01093   0.00000   0.00000
  20        2PZ         0.00000   0.00000   0.00000   0.04221  -0.01883
  21        3S          0.00034  -0.00398  -0.01384   0.00000   0.00000
  22        3PX        -0.01608   0.00613   0.02303   0.00000   0.00000
  23        3PY        -0.03685  -0.00317   0.01237   0.00000   0.00000
  24        3PZ         0.00000   0.00000   0.00000   0.03315  -0.01325
  25        4XX         0.00034  -0.00090  -0.00234   0.00000   0.00000
  26        4YY        -0.00150  -0.00007   0.00062   0.00000   0.00000
  27        4ZZ        -0.00017   0.00018   0.00052   0.00000   0.00000
  28        4XY         0.00125   0.00080   0.00078   0.00000   0.00000
  29        4XZ         0.00000   0.00000   0.00000  -0.00245   0.00135
  30        4YZ         0.00000   0.00000   0.00000   0.00155  -0.00082
  31 3   H  1S          0.03358  -0.00469  -0.00571   0.00000   0.00000
  32        2S          0.03293   0.00009  -0.00847   0.00000   0.00000
  33 4   N  1S          0.00586   0.00213  -0.00790  -0.00001   0.00000
  34        2S         -0.01180  -0.00463   0.01611   0.00002   0.00000
  35        2PX        -0.01177  -0.00758   0.02711   0.00000   0.00000
  36        2PY        -0.01790  -0.00402  -0.00379   0.00000   0.00000
  37        2PZ         0.00000  -0.00001   0.00001  -0.04292  -0.00686
  38        3S         -0.03652  -0.00317   0.02770   0.00003   0.00000
  39        3PX        -0.01224  -0.00378   0.01791  -0.00001   0.00000
  40        3PY        -0.01627  -0.00132  -0.00105   0.00001   0.00000
  41        3PZ        -0.00001  -0.00001   0.00001  -0.04104  -0.00397
  42        4XX        -0.00081  -0.00066  -0.00060   0.00000   0.00000
  43        4YY         0.00169   0.00020   0.00038   0.00000   0.00000
  44        4ZZ         0.00032   0.00011  -0.00035   0.00000   0.00000
  45        4XY         0.00083  -0.00038   0.00126   0.00000   0.00000
  46        4XZ         0.00000   0.00000   0.00000   0.00000  -0.00043
  47        4YZ         0.00000   0.00000   0.00000  -0.00030  -0.00017
  48 5   H  1S         -0.00418   0.00059  -0.01023  -0.00002   0.00000
  49        2S          0.00168   0.00041  -0.00812  -0.00001   0.00000
  50 6   H  1S          0.00878   0.00141   0.00562  -0.00001   0.00000
  51        2S          0.01069   0.00117  -0.00137   0.00000   0.00000
                          16        17        18        19        20
  16 2   O  1S          2.08130
  17        2S         -0.18489   0.50266
  18        2PX        -0.03911   0.08854   0.63511
  19        2PY         0.02373  -0.04368   0.09620   0.73769
  20        2PZ         0.00000   0.00001   0.00000   0.00000   0.56810
  21        3S         -0.23246   0.53646   0.23730  -0.17606  -0.00003
  22        3PX        -0.03093   0.07379   0.39374   0.12011   0.00001
  23        3PY         0.01896  -0.03697   0.11511   0.51015   0.00000
  24        3PZ         0.00000   0.00001  -0.00001   0.00000   0.42010
  25        4XX        -0.00808   0.00116  -0.04042  -0.00814   0.00000
  26        4YY        -0.00857   0.00215   0.01404   0.02866   0.00000
  27        4ZZ        -0.00879   0.00098   0.00834  -0.00103   0.00000
  28        4XY        -0.00090   0.00106   0.01334  -0.03041   0.00000
  29        4XZ         0.00000   0.00000   0.00000   0.00000  -0.03734
  30        4YZ         0.00000   0.00000   0.00000   0.00000   0.02307
  31 3   H  1S          0.00769  -0.02289  -0.00954  -0.08592  -0.00001
  32        2S          0.00361  -0.01340  -0.02830  -0.19530   0.00001
  33 4   N  1S         -0.00212   0.00410  -0.02503  -0.02063  -0.00002
  34        2S          0.00382  -0.00722   0.05000   0.03670   0.00006
  35        2PX         0.00916  -0.01960   0.08148   0.04569  -0.00004
  36        2PY        -0.00333   0.00850   0.00712   0.01034   0.00000
  37        2PZ         0.00000  -0.00001   0.00004   0.00002  -0.13516
  38        3S          0.00316  -0.00124   0.16999   0.22826   0.00011
  39        3PX         0.00353  -0.00619   0.07790   0.07056  -0.00007
  40        3PY        -0.00629   0.01525   0.02833   0.02230   0.00004
  41        3PZ         0.00000  -0.00001   0.00006   0.00006  -0.17319
  42        4XX        -0.00125   0.00245  -0.01112  -0.00085   0.00000
  43        4YY         0.00041  -0.00073   0.00323  -0.00607   0.00000
  44        4ZZ        -0.00028   0.00040  -0.00078  -0.00124  -0.00001
  45        4XY         0.00066  -0.00118   0.00473  -0.00082   0.00000
  46        4XZ         0.00000   0.00000   0.00001   0.00000   0.00731
  47        4YZ         0.00000   0.00000   0.00000   0.00000   0.00109
  48 5   H  1S         -0.00437   0.01013  -0.04070  -0.01160  -0.00005
  49        2S         -0.00118   0.00187  -0.05546  -0.03087  -0.00007
  50 6   H  1S          0.00227  -0.00556   0.01632  -0.00352  -0.00003
  51        2S         -0.00327   0.00602  -0.00153  -0.05864   0.00000
                          21        22        23        24        25
  21        3S          0.63924
  22        3PX         0.15255   0.25126
  23        3PY        -0.11673   0.11328   0.36064
  24        3PZ        -0.00002   0.00000   0.00000   0.31283
  25        4XX        -0.00799  -0.02455  -0.00809   0.00000   0.00289
  26        4YY         0.00003   0.01082   0.02003   0.00000  -0.00103
  27        4ZZ         0.00353   0.00500   0.00004   0.00000  -0.00048
  28        4XY         0.01102   0.00549  -0.01921   0.00000  -0.00073
  29        4XZ         0.00000   0.00000   0.00000  -0.02725   0.00000
  30        4YZ         0.00000   0.00000   0.00000   0.01688   0.00000
  31 3   H  1S          0.00118  -0.02258  -0.08469  -0.00001  -0.00490
  32        2S          0.02688  -0.04198  -0.15413   0.00001  -0.00231
  33 4   N  1S          0.00137  -0.01770  -0.01951  -0.00002   0.00047
  34        2S         -0.00177   0.03571   0.03649   0.00006  -0.00088
  35        2PX        -0.01502   0.06940   0.05447  -0.00004  -0.00063
  36        2PY         0.00945   0.00208   0.01622   0.00000   0.00224
  37        2PZ         0.00002   0.00002   0.00002  -0.13673   0.00000
  38        3S         -0.00796   0.12838   0.18659   0.00010  -0.00672
  39        3PX        -0.00544   0.06334   0.06587  -0.00007  -0.00198
  40        3PY         0.01793   0.01812   0.02568   0.00002   0.00054
  41        3PZ         0.00002   0.00004   0.00005  -0.15959   0.00000
  42        4XX        -0.00023  -0.00673  -0.00099   0.00000   0.00095
  43        4YY         0.00175   0.00107  -0.00500   0.00000  -0.00048
  44        4ZZ         0.00045  -0.00059  -0.00108  -0.00001   0.00000
  45        4XY         0.00008   0.00343  -0.00030   0.00000  -0.00030
  46        4XZ         0.00000   0.00001   0.00000   0.00480   0.00000
  47        4YZ         0.00000   0.00000   0.00000   0.00038   0.00000
  48 5   H  1S          0.00544  -0.03328  -0.01326  -0.00005   0.00223
  49        2S         -0.00481  -0.03962  -0.02717  -0.00006   0.00315
  50 6   H  1S         -0.00028   0.01048  -0.00600  -0.00003  -0.00242
  51        2S          0.01921  -0.00677  -0.04573   0.00000  -0.00110
                          26        27        28        29        30
  26        4YY         0.00143
  27        4ZZ         0.00012   0.00015
  28        4XY        -0.00096   0.00029   0.00180
  29        4XZ         0.00000   0.00000   0.00000   0.00251
  30        4YZ         0.00000   0.00000   0.00000  -0.00155   0.00095
  31 3   H  1S         -0.00029  -0.00035   0.00097   0.00000   0.00000
  32        2S         -0.00496  -0.00020   0.00613   0.00000   0.00000
  33 4   N  1S          0.00002  -0.00041  -0.00014   0.00000   0.00000
  34        2S          0.00005   0.00078   0.00040   0.00000   0.00000
  35        2PX        -0.00085   0.00171   0.00091   0.00000   0.00000
  36        2PY        -0.00311   0.00046   0.00167   0.00000   0.00000
  37        2PZ         0.00000   0.00000   0.00000   0.00283  -0.00242
  38        3S          0.00764   0.00203  -0.00380   0.00000   0.00000
  39        3PX         0.00144   0.00130  -0.00041   0.00000   0.00000
  40        3PY        -0.00127   0.00061   0.00132   0.00000   0.00000
  41        3PZ         0.00000   0.00000   0.00000   0.00620  -0.00440
  42        4XX        -0.00041  -0.00013  -0.00020   0.00000   0.00000
  43        4YY         0.00009   0.00002   0.00021   0.00000   0.00000
  44        4ZZ        -0.00001  -0.00001   0.00001   0.00000   0.00000
  45        4XY         0.00003   0.00008   0.00008   0.00000   0.00000
  46        4XZ         0.00000   0.00000   0.00000  -0.00058   0.00035
  47        4YZ         0.00000   0.00000   0.00000  -0.00014   0.00008
  48 5   H  1S         -0.00119  -0.00066  -0.00004   0.00000   0.00000
  49        2S         -0.00181  -0.00074  -0.00001   0.00000   0.00000
  50 6   H  1S          0.00193   0.00000  -0.00045   0.00000   0.00000
  51        2S         -0.00087  -0.00001   0.00181   0.00000   0.00000
                          31        32        33        34        35
  31 3   H  1S          0.22032
  32        2S          0.16560   0.15792
  33 4   N  1S          0.01799   0.02351   2.06298
  34        2S         -0.03588  -0.04613  -0.12325   0.36203
  35        2PX        -0.04418  -0.09187  -0.00242   0.00298   0.46563
  36        2PY        -0.03790  -0.05611   0.00007  -0.00279  -0.00199
  37        2PZ        -0.00001  -0.00005   0.00005  -0.00015   0.00009
  38        3S         -0.13433  -0.15272  -0.20011   0.40680   0.05887
  39        3PX        -0.04737  -0.07599  -0.00406   0.00510   0.27748
  40        3PY        -0.05283  -0.05667  -0.00381   0.00522  -0.00471
  41        3PZ        -0.00002  -0.00007   0.00005  -0.00016   0.00014
  42        4XX        -0.00271  -0.00322  -0.01354   0.01285  -0.00367
  43        4YY         0.00729   0.00817  -0.01524   0.01670  -0.01202
  44        4ZZ         0.00100   0.00116  -0.00244  -0.00995   0.00131
  45        4XY         0.00515   0.00164   0.00163  -0.00334   0.02286
  46        4XZ         0.00000  -0.00001   0.00001  -0.00002   0.00006
  47        4YZ        -0.00001  -0.00001   0.00000   0.00000  -0.00001
  48 5   H  1S         -0.00848   0.00784  -0.05260   0.11036  -0.22291
  49        2S          0.00303   0.01469   0.00092  -0.00037  -0.09731
  50 6   H  1S          0.02402   0.03204  -0.05244   0.11189  -0.03085
  51        2S          0.04008   0.04646   0.00225  -0.00223  -0.02877
                          36        37        38        39        40
  36        2PY         0.47154
  37        2PZ         0.00000   0.65499
  38        3S          0.02310  -0.00021   0.54703
  39        3PX         0.00079   0.00019   0.05855   0.17024
  40        3PY         0.30177  -0.00002   0.03831   0.00251   0.19803
  41        3PZ         0.00000   0.57488  -0.00020   0.00021  -0.00002
  42        4XX         0.01922  -0.00002   0.01312  -0.00257   0.01214
  43        4YY        -0.02639  -0.00001   0.01351  -0.00771  -0.01712
  44        4ZZ        -0.00007   0.00004  -0.01093   0.00068  -0.00025
  45        4XY        -0.01180  -0.00001  -0.00404   0.01300  -0.00855
  46        4XZ        -0.00001   0.00854  -0.00002   0.00004  -0.00001
  47        4YZ         0.00007   0.00696   0.00000  -0.00001   0.00004
  48 5   H  1S          0.15601   0.00025   0.10482  -0.13167   0.10372
  49        2S          0.06067   0.00012  -0.01835  -0.06029   0.03815
  50 6   H  1S         -0.26897   0.00016   0.10424  -0.01915  -0.17072
  51        2S         -0.10497   0.00002  -0.03132  -0.02213  -0.07074
                          41        42        43        44        45
  41        3PZ         0.51008
  42        4XX        -0.00002   0.00161
  43        4YY        -0.00002  -0.00042   0.00280
  44        4ZZ         0.00004  -0.00035  -0.00045   0.00030
  45        4XY        -0.00001  -0.00081   0.00007   0.00017   0.00162
  46        4XZ         0.00658   0.00000   0.00000   0.00000   0.00000
  47        4YZ         0.00586   0.00000   0.00000   0.00000   0.00000
  48 5   H  1S          0.00018   0.01261   0.00206  -0.00372  -0.01611
  49        2S          0.00010   0.00407  -0.00098  -0.00031  -0.00639
  50 6   H  1S          0.00013  -0.00691   0.02139  -0.00304   0.00440
  51        2S          0.00001  -0.00420   0.00758   0.00005   0.00208
                          46        47        48        49        50
  46        4XZ         0.00026
  47        4YZ         0.00013   0.00009
  48 5   H  1S         -0.00004   0.00003   0.19373
  49        2S         -0.00001   0.00001   0.06799   0.03104
  50 6   H  1S          0.00000  -0.00004  -0.03982  -0.02842   0.19017
  51        2S          0.00000  -0.00001  -0.02231  -0.00679   0.06276
                          51
  51        2S          0.03195
    Full Mulliken population analysis:
                           1         2         3         4         5
   1 1   C  1S          2.05940
   2        2S         -0.02333   0.33442
   3        2PX         0.00000   0.00000   0.39163
   4        2PY         0.00000   0.00000   0.00000   0.42192
   5        2PZ         0.00000   0.00000   0.00000   0.00000   0.22051
   6        3S         -0.01738   0.13875   0.00000   0.00000   0.00000
   7        3PX         0.00000   0.00000   0.01523   0.00000   0.00000
   8        3PY         0.00000   0.00000   0.00000   0.06324   0.00000
   9        3PZ         0.00000   0.00000   0.00000   0.00000   0.06614
  10        4XX        -0.00052   0.00732   0.00000   0.00000   0.00000
  11        4YY        -0.00066   0.00603   0.00000   0.00000   0.00000
  12        4ZZ         0.00030  -0.01370   0.00000   0.00000   0.00000
  13        4XY         0.00000   0.00000   0.00000   0.00000   0.00000
  14        4XZ         0.00000   0.00000   0.00000   0.00000   0.00000
  15        4YZ         0.00000   0.00000   0.00000   0.00000   0.00000
  16 2   O  1S          0.00000  -0.00040  -0.00167  -0.00070   0.00000
  17        2S         -0.00026   0.00619   0.02173   0.00983   0.00000
  18        2PX        -0.00165   0.03547   0.04367   0.03593   0.00000
  19        2PY        -0.00059   0.01407   0.03490   0.00048   0.00000
  20        2PZ         0.00000   0.00000   0.00000   0.00000   0.02741
  21        3S         -0.00007  -0.01594  -0.00460  -0.00227   0.00000
  22        3PX        -0.00652   0.05166   0.01457   0.02609   0.00000
  23        3PY        -0.00180   0.01775   0.02591  -0.00694   0.00000
  24        3PZ         0.00000   0.00000   0.00000   0.00000   0.05785
  25        4XX        -0.00042   0.00425   0.00333   0.00713   0.00000
  26        4YY        -0.00001   0.00031   0.00232  -0.00015   0.00000
  27        4ZZ         0.00001  -0.00044  -0.00077  -0.00024   0.00000
[...]
        6.3267642       2.0313760     762.6562248
 Diagonal vibrational hyperpolarizability:
      -18.5698339      -3.5116746       4.3963663
 Harmonic frequencies (cm**-1), IR intensities (KM/Mole), Raman scattering
 activities (A**4/AMU), depolarization ratios for plane and unpolarized
 incident light, reduced masses (AMU), force constants (mDyne/A),
 and normal coordinates:
                      1                      2                      3
                      A                      A                      A
 Frequencies --    108.8614               617.7363               673.5069
 Red. masses --      1.2215                 2.5007                 1.1964
 Frc consts  --      0.0085                 0.5622                 0.3197
 IR Inten    --    334.9799                17.3025                32.4995
 Raman Activ --      0.3185                 1.4129                 0.8422
 Depolar (P) --      0.7500                 0.6410                 0.7500
 Depolar (U) --      0.8571                 0.7813                 0.8571
  Atom  AN      X      Y      Z        X      Y      Z        X      Y      Z
     1   6     0.00   0.00   0.01    -0.01  -0.20   0.00     0.00   0.00  -0.10
     2   8     0.00   0.00   0.02     0.19   0.11   0.00     0.00   0.00   0.06
     3   1     0.00   0.00   0.00    -0.14  -0.20   0.00     0.00   0.00  -0.23
     4   7     0.00   0.00  -0.13    -0.16   0.02   0.00     0.00   0.00   0.05
     5   1     0.00   0.00   0.84     0.15   0.47   0.00     0.00   0.00   0.58
     6   1     0.00   0.00   0.53    -0.75   0.09   0.00     0.00   0.00  -0.77
                      4                      5                      6
                      A                      A                      A
 Frequencies --   1160.1667              1182.7623              1378.8233
 Red. masses --      1.7818                 1.5679                 2.6737
 Frc consts  --      1.4130                 1.2923                 2.9949
 IR Inten    --      8.3441                 2.5087               155.0739
 Raman Activ --      4.1352                 2.5689                 1.9284
 Depolar (P) --      0.3733                 0.7500                 0.2009
 Depolar (U) --      0.5437                 0.8571                 0.3345
  Atom  AN      X      Y      Z        X      Y      Z        X      Y      Z
     1   6     0.06   0.02   0.00     0.00   0.00   0.21     0.18   0.25   0.00
     2   8     0.12  -0.02   0.00     0.00   0.00  -0.06    -0.02  -0.04   0.00
     3   1     0.34   0.01   0.00     0.00   0.00  -0.96     0.34   0.26   0.00
     4   7    -0.19   0.05   0.00     0.00   0.00  -0.04    -0.11  -0.19   0.00
     5   1    -0.61  -0.53   0.00     0.00   0.00  -0.01     0.07   0.10   0.00
     6   1     0.42  -0.03   0.00     0.00   0.00  -0.14    -0.80  -0.12   0.00
                      7                      8                      9
                      A                      A                      A
 Frequencies --   1563.4182              1789.1543              1998.8322
 Red. masses --      1.2233                 1.2201                 7.2887
 Frc consts  --      1.7616                 2.3012                17.1575
 IR Inten    --     10.3285                84.0331               514.8582
 Raman Activ --      6.3504                 4.3844                 8.9589
 Depolar (P) --      0.4379                 0.6564                 0.3715
 Depolar (U) --      0.6090                 0.7926                 0.5417
  Atom  AN      X      Y      Z        X      Y      Z        X      Y      Z
     1   6    -0.04  -0.07   0.00     0.00  -0.05   0.00     0.55  -0.26   0.00
     2   8    -0.06   0.07   0.00    -0.03   0.02   0.00    -0.32   0.19   0.00
     3   1     0.97  -0.08   0.00     0.05  -0.06   0.00    -0.49  -0.27   0.00
     4   7     0.02  -0.02   0.00     0.10   0.05   0.00    -0.10   0.02   0.00
     5   1     0.12   0.11   0.00    -0.38  -0.63   0.00    -0.09   0.04   0.00
     6   1     0.06  -0.03   0.00    -0.65   0.14   0.00     0.39  -0.04   0.00
                     10                     11                     12
                      A                      A                      A
 Frequencies --   3214.2430              3838.1540              3972.8056
 Red. masses --      1.0895                 1.0471                 1.1060
 Frc consts  --      6.6316                 9.0884                10.2853
 IR Inten    --    103.7565                57.9406                63.4792
 Raman Activ --     95.3213                79.5745                43.6738
 Depolar (P) --      0.2930                 0.1361                 0.7236
 Depolar (U) --      0.4532                 0.2396                 0.8396
  Atom  AN      X      Y      Z        X      Y      Z        X      Y      Z
     1   6     0.00  -0.09   0.00     0.00   0.00   0.00     0.00   0.00   0.00
     2   8     0.00   0.00   0.00     0.00   0.00   0.00     0.00   0.00   0.00
     3   1     0.01   1.00   0.00     0.00   0.00   0.00     0.00  -0.01   0.00
     4   7     0.00   0.00   0.00    -0.05  -0.03   0.00    -0.04   0.08   0.00
     5   1     0.00  -0.02   0.00     0.51  -0.36   0.00     0.64  -0.45   0.00
     6   1     0.00  -0.01   0.00     0.08   0.77   0.00    -0.07  -0.62   0.00

 -------------------
 - Thermochemistry -
 -------------------
 Temperature   298.150 Kelvin.  Pressure   1.00000 Atm.
 Atom     1 has atomic number  6 and mass  12.00000
 Atom     2 has atomic number  8 and mass  15.99491
 Atom     3 has atomic number  1 and mass   1.00783
 Atom     4 has atomic number  7 and mass  14.00307
 Atom     5 has atomic number  1 and mass   1.00783
 Atom     6 has atomic number  1 and mass   1.00783
 Molecular mass:    45.02146 amu.
 Principal axes and moments of inertia in atomic units:
                           1         2         3
     Eigenvalues --    23.86895 155.53642 179.40536
           X            0.99980   0.01985  -0.00004
           Y           -0.01985   0.99980  -0.00003
           Z            0.00004   0.00003   1.00000
 This molecule is an asymmetric top.
 Rotational symmetry number  1.
 Rotational temperatures (Kelvin)      3.62872     0.55687     0.48278
 Rotational constants (GHZ):          75.61042    11.60333    10.05957
 Zero-point vibrational energy     128589.4 (Joules/Mol)
                                   30.73360 (Kcal/Mol)
 Warning -- explicit consideration of   2 degrees of freedom as
           vibrations may cause significant error
 Vibrational temperatures:    156.63   888.78   969.03  1669.22  1701.73
          (Kelvin)           1983.82  2249.41  2574.19  2875.87  4624.57
                             5522.24  5715.97
 
 Zero-point correction=                           0.048977 (Hartree/Particle)
 Thermal correction to Energy=                    0.052853
 Thermal correction to Enthalpy=                  0.053797
 Thermal correction to Gibbs Free Energy=         0.024035
 Sum of electronic and zero-point Energies=           -168.881726
 Sum of electronic and thermal Energies=              -168.877850
 Sum of electronic and thermal Enthalpies=            -168.876905
 Sum of electronic and thermal Free Energies=         -168.906668
 
                     E (Thermal)             CV                S
                      KCal/Mol        Cal/Mol-Kelvin    Cal/Mol-Kelvin
 Total                   33.166             10.440             62.640
 Electronic               0.000              0.000              0.000
 Translational            0.889              2.981             37.339
 Rotational               0.889              2.981             21.126
 Vibrational             31.388              4.478              4.175
 Vibration     1          0.606              1.942              3.289
 Vibration     2          0.978              0.994              0.420
                       Q            Log10(Q)             Ln(Q)
 Total Bot       0.880489D-11        -11.055276        -25.455714
 Total V=0       0.296880D+12         11.472580         26.416593
 Vib (Bot)       0.802680D-22        -22.095457        -50.876671
 Vib (Bot)    1  0.188185D+01          0.274586          0.632257
 Vib (Bot)    2  0.237302D+00         -0.624699         -1.438422
 Vib (V=0)       0.270644D+01          0.432399          0.995635
 Vib (V=0)    1  0.244714D+01          0.388659          0.894921
 Vib (V=0)    2  0.105345D+01          0.022616          0.052075
 Electronic      0.100000D+01          0.000000          0.000000
 Translational   0.118737D+08          7.074585         16.289833
 Rotational      0.923840D+04          3.965597          9.131124
 ***** Axes restored to original set *****
 -------------------------------------------------------------------
 Center     Atomic                   Forces (Hartrees/Bohr)
 Number     Number              X              Y              Z
 -------------------------------------------------------------------
      1        6          -0.000003891   -0.000000988   -0.000004421
      2        8          -0.000000159   -0.000000211    0.000001622
      3        1           0.000000407    0.000000102   -0.000000708
      4        7           0.000001971    0.000001939    0.000003079
      5        1           0.000000210   -0.000000738    0.000002003
      6        1           0.000001463   -0.000000104   -0.000001575
 -------------------------------------------------------------------
 Cartesian Forces:  Max     0.000004421 RMS     0.000001906

 GradGradGradGradGradGradGradGradGradGradGradGradGradGradGradGradGradGrad
 Berny optimization.
 Search for a local minimum.
 Step number   1 out of a maximum of    2
 All quantities printed in internal units (Hartrees-Bohrs-Radians)
 Second derivative matrix not updated -- analytic derivatives used.
 The second derivative matrix:
                          X1        Y1        Z1        X2        Y2
           X1           0.74306
           Y1           0.14127   0.28899
           Z1          -0.01600  -0.10416   1.22143
           X2          -0.13439  -0.01394   0.02177   0.09958
           Y2          -0.01547  -0.10506   0.08570   0.01535   0.05320
           Z2           0.03685   0.08989  -0.87685   0.01322  -0.09432
           X3          -0.25245  -0.05714   0.09092   0.01558  -0.00414
           Y3          -0.05812  -0.09879   0.03006  -0.00645   0.02289
           Z3           0.10071   0.03277  -0.12739   0.03582   0.01675
           X4          -0.34719  -0.07186  -0.08392   0.01979   0.00461
           Y4          -0.06915  -0.07604  -0.00561   0.00589   0.02694
           Z4          -0.10937  -0.01278  -0.23032  -0.07156  -0.00877
           X5           0.01626   0.01090  -0.03279  -0.00635  -0.00363
           Y5           0.00659  -0.00817  -0.00901  -0.00367   0.00750
           Z5           0.00897   0.00263  -0.01225  -0.00441  -0.00041
           X6          -0.02528  -0.00923   0.02001   0.00579   0.00328
           Y6          -0.00513  -0.00093   0.00303   0.00282  -0.00547
           Z6          -0.02117  -0.00834   0.02538   0.00515   0.00105
                          Z2        X3        Y3        Z3        X4
           Z2           1.00470
           X3           0.01309   0.27125
           Y3           0.01045   0.07767   0.05864
           Z3          -0.04144  -0.11361  -0.04379   0.15376
           X4          -0.05893  -0.03097  -0.01082  -0.02039   0.85476
           Y4          -0.00531  -0.01440   0.01207  -0.00569   0.23281
           Z4          -0.08437   0.01504   0.00413   0.01589  -0.00938
           X5          -0.00474  -0.00076   0.00009   0.00136  -0.08952
           Y5          -0.00050   0.00028  -0.00153   0.00012  -0.02836
           Z5           0.00055  -0.00043  -0.00038   0.00091   0.02126
           X6           0.00051  -0.00265  -0.00237  -0.00389  -0.40687
           Y6          -0.00022  -0.00226   0.00671  -0.00016  -0.12637
           Z6          -0.00259  -0.00501  -0.00047  -0.00173   0.15136
                          Y4        Z4        X5        Y5        Z5
           Y4           0.09181
           Z4          -0.10186   0.99023
           X5          -0.02869   0.02427   0.07204
           Y5          -0.00898   0.06111   0.02072   0.01718
           Z5           0.06016  -0.52457  -0.02161  -0.06068   0.53898
           X6          -0.12645   0.15099   0.00833   0.00444  -0.00379
           Y6          -0.04579   0.05818   0.00061  -0.00601  -0.00132
           Z6           0.05831  -0.16685   0.03350   0.00897  -0.00362
                          X6        Y6        Z6
           X6           0.42069
           Y6           0.13033   0.05149
           Z6          -0.16383  -0.05951   0.14942
 ITU=  0
     Eigenvalues ---    0.00117   0.02398   0.03782   0.10269   0.17754
     Eigenvalues ---    0.23197   0.28543   0.41265   0.76148   1.30891
     Eigenvalues ---    1.36581   2.03458
 Angle between quadratic step and forces=  78.78 degrees.
 Linear search not attempted -- first point.
 TrRot= -0.000009  0.000072 -0.000001 -0.000035  0.000017 -0.000035
 Variable       Old X    -DE/DX   Delta X   Delta X   Delta X     New X
                                 (Linear)    (Quad)   (Total)
    X1       -0.02250   0.00000   0.00000  -0.00002  -0.00003  -0.02254
    Y1       -0.06631   0.00000   0.00000   0.00005   0.00012  -0.06619
    Z1        0.01532   0.00000   0.00000   0.00000   0.00000   0.01533
    X2       -0.01234   0.00000   0.00000   0.00004   0.00005  -0.01229
    Y2       -0.29115   0.00000   0.00000  -0.00015  -0.00007  -0.29122
    Z2        2.25823   0.00000   0.00000  -0.00001  -0.00002   2.25821
    X3        1.65129   0.00000   0.00000   0.00000   0.00001   1.65130
    Y3        0.50514   0.00000   0.00000  -0.00001  -0.00006   0.50508
    Z3       -1.04320   0.00000   0.00000  -0.00001  -0.00004  -1.04324
    X4       -2.04245   0.00000   0.00000  -0.00018  -0.00024  -2.04269
    Y4       -0.47444   0.00000   0.00000   0.00064   0.00085  -0.47358
    Z4       -1.48353   0.00000   0.00000   0.00007   0.00010  -1.48343
    X5       -1.95268   0.00000   0.00000   0.00027   0.00019  -1.95249
    Y5       -0.25871   0.00000   0.00000  -0.00093  -0.00073  -0.25944
    Z5       -3.34518   0.00000   0.00000  -0.00009  -0.00006  -3.34523
    X6       -3.67220   0.00000   0.00000   0.00012   0.00003  -3.67217
    Y6       -1.00377   0.00000   0.00000  -0.00045  -0.00012  -1.00389
    Z6       -0.70707   0.00000   0.00000  -0.00006   0.00000  -0.70706
         Item               Value     Threshold  Converged?
 Maximum Force            0.000004     0.000450     YES
 RMS     Force            0.000002     0.000300     YES
 Maximum Displacement     0.000855     0.001800     YES
 RMS     Displacement     0.000280     0.001200     YES
 Predicted change in Energy=-1.008858D-09
 Optimization completed.
    -- Stationary point found.
 GradGradGradGradGradGradGradGradGradGradGradGradGradGradGradGradGradGrad


 Test job not archived.
 1\1\GINC-KADET27\Freq\RHF\6-31G(d)\C1H3N1O1\MDOROHUN\22-Apr-2026\0\\# 
 RHF/6-31G(d) GFInput Freq Pop=Full IOP(6/80=1)\\Freq analiza optymalne
 go formamida\\0,1\C,-0.011909,-0.03509,0.008109\O,-0.00653,-0.154069,1
 .195004\H,0.873827,0.267308,-0.552038\N,-1.080817,-0.251062,-0.78505\H
 ,-1.033314,-0.136904,-1.770191\H,-1.943244,-0.531173,-0.374163\\Versio
 n=ES64L-G09RevD.01\State=1-A\HF=-168.9307027\RMSD=2.389e-09\RMSF=1.906
 e-06\ZeroPoint=0.0489771\Thermal=0.0528532\Dipole=-0.4270223,0.0407449
 ,-1.5552153\DipoleDeriv=1.3936652,0.1894937,0.5376177,0.1960842,0.5676
 039,0.0032456,0.4715029,-0.0151119,1.9520276,-0.6712623,-0.0463749,0.0
 154658,-0.0194064,-0.5256972,0.1064989,-0.2497877,0.0328964,-1.516456,
 -0.1386564,-0.0620312,0.104034,-0.0635018,0.0254296,0.0391184,0.118584
 9,0.0431678,-0.0541289,-0.9897924,0.0257461,-0.6565893,-0.0077918,-0.8
 256388,-0.1928733,-0.3302988,-0.1017194,-0.7460953,0.1803203,-0.062597
 6,0.0179442,-0.0612196,0.3800894,0.0245897,0.0065705,0.0209962,0.21199
 71,0.2257256,-0.0442361,-0.0184724,-0.0441646,0.3782131,0.0194207,-0.0
 165719,0.0197708,0.1526556\Polar=19.014488,2.4470581,10.1381047,2.2332
 228,-0.9046312,24.372598\PolarDeriv=-4.0261796,-1.3475328,-0.2577297,1
 .5101328,0.6521587,0.3545621,-1.5371653,-0.495519,0.1518924,1.0644017,
 -0.6392059,0.4442281,3.7868776,1.5887215,0.0007821,-3.8363821,-0.68248
 39,-5.1789844,1.2735683,-0.059764,-0.3088204,3.2603806,-0.1502621,-0.4
 399339,-0.0549141,0.7377493,-0.5529377,-0.4444384,3.7415951,-0.4993644
 ,0.4064318,-0.3650244,0.5468084,3.4762451,0.2697837,11.3754336,6.67612
 64,1.4859433,0.7935133,-2.4045385,-0.5340047,1.27688,1.2061182,2.05870
 97,1.3815861,-0.5334446,-0.9457856,0.440975,-3.025586,-0.8407072,-0.54
 27001,2.5038061,0.8314517,-2.4039952,3.0547632,1.5178326,0.1344939,-1.
 7194088,-0.0096311,-0.6221712,1.9300547,-0.868283,-0.43093,-0.2151314,
 -1.5612558,-0.8857464,-2.7926415,-0.9592098,-0.2181567,0.3050326,-0.46
 1016,3.7502435,-0.506545,-0.0274253,-0.0961762,-1.2728208,-0.1053062,0
 .402116,-0.1179296,0.0928706,0.2594143,0.0519238,-1.1243085,0.7084362,
 -0.8889195,-0.1601242,0.0122986,-0.9567378,0.4454657,-7.9289505,-6.471
 7334,-1.5690539,-0.2652809,0.6262546,0.1470455,-0.9714529,-1.426164,-1
 .5255276,-0.8090251,0.076689,0.5289607,-0.2085284,2.5138376,0.736344,0
 .2009677,-1.4919639,-0.4032012,0.3862532\HyperPolar=17.8673081,4.53636
 39,0.2214364,0.7359309,9.1187359,1.3283606,-4.2467007,20.819444,10.304
 2472,-51.4595236\PG=C01 [X(C1H3N1O1)]\NImag=0\\0.74305934,0.14127440,0
 .28899481,-0.01599569,-0.10416372,1.22142563,-0.13438761,-0.01394086,0
 .02177224,0.09957527,-0.01546766,-0.10505638,0.08570088,0.01535092,0.0
 5319682,0.03685246,0.08989107,-0.87685067,0.01322010,-0.09431661,1.004
 69802,-0.25245188,-0.05714337,0.09091896,0.01558161,-0.00414284,0.0130
 8835,0.27125294,-0.05812139,-0.09878799,0.03005877,-0.00645395,0.02288
 876,0.01044628,0.07767233,0.05864413,0.10071255,0.03276865,-0.12738912
 ,0.03582079,0.01674669,-0.04143596,-0.11360799,-0.04378521,0.15375847,
 -0.34719391,-0.07186139,-0.08392166,0.01979306,0.00460764,-0.05893008,
 -0.03096527,-0.01081638,-0.02038953,0.85475869,-0.06915284,-0.07604456
 ,-0.00561282,0.00588608,0.02693631,-0.00530514,-0.01440001,0.01207054,
 -0.00568651,0.23280533,0.09180896,-0.10936978,-0.01278482,-0.23031827,
 -0.07155735,-0.00877058,-0.08437263,0.01503928,0.00412961,0.01588594,-
 0.00937698,-0.10186185,0.99022976,0.01625902,0.01090423,-0.03278702,-0
 .00634984,-0.00363305,-0.00473595,-0.00076253,0.00009048,0.00135659,-0
 .08952116,-0.02869051,0.02427010,0.07204360,0.00659353,-0.00817105,-0.
 00901400,-0.00366613,0.00750406,-0.00049921,0.00027671,-0.00153003,0.0
 0011992,-0.02836214,-0.00897655,0.06110665,0.02072220,0.01718207,0.008
 97383,0.00263153,-0.01224581,-0.00440803,-0.00041167,0.00055198,-0.000
 42725,-0.00037797,0.00091418,0.02126291,0.06015959,-0.52457303,-0.0216
 0780,-0.06068440,0.53897576,-0.02528496,-0.00923300,0.02001318,0.00578
 751,0.00328498,0.00050512,-0.00265487,-0.00237109,-0.00389240,-0.40687
 141,-0.12644803,0.15099473,0.00833091,0.00443582,-0.00379366,0.4206928
 2,-0.00512604,-0.00093482,0.00303090,0.00282394,-0.00546958,-0.0002163
 8,-0.00226282,0.00671458,-0.00016353,-0.12637305,-0.04579470,0.0581810
 0,0.00060665,-0.00600850,-0.00131709,0.13033133,0.05149302,-0.02117337
 ,-0.00834270,0.02537826,0.00515226,0.00105130,-0.00259073,-0.00501135,
 -0.00047148,-0.00173350,0.15135534,0.05830673,-0.16685176,0.03350409,0
 .00897104,-0.00362307,-0.16382697,-0.05951489,0.14942080\\0.00000389,0
 .00000099,0.00000442,0.00000016,0.00000021,-0.00000162,-0.00000041,-0.
 00000010,0.00000071,-0.00000197,-0.00000194,-0.00000308,-0.00000021,0.
 00000074,-0.00000200,-0.00000146,0.00000010,0.00000158\\\@


 THE REASON MAN'S BEST FRIEND IS A DOG IS BECAUSE
 HE WAGS HIS TAIL INSTEAD OF HIS TONGUE.
 Job cpu time:       0 days  0 hours  0 minutes  1.0 seconds.
 File lengths (MBytes):  RWF=      5 Int=      0 D2E=      0 Chk=      1 Scr=      1
 Normal termination of Gaussian 09 at Wed Apr 22 13:01:56 2026.
