 Entering Gaussian System, Link 0=/opt/g09/g09/g09
 Input=formamid_opt.inp
 Output=formamid_opt.log
 Initial command:
 /opt/g09/g09/l1.exe "/tmp/Gau-7278.inp" -scrdir="/tmp/"
 Entering Link 1 = /opt/g09/g09/l1.exe PID=      7280.
  
 Copyright (c) 1988,1990,1992,1993,1995,1998,2003,2009,2013,
            Gaussian, Inc.  All Rights Reserved.
  
 This is part of the Gaussian(R) 09 program.  It is based on
 the Gaussian(R) 03 system (copyright 2003, Gaussian, Inc.),
 the Gaussian(R) 98 system (copyright 1998, Gaussian, Inc.),
 the Gaussian(R) 94 system (copyright 1995, Gaussian, Inc.),
 the Gaussian 92(TM) system (copyright 1992, Gaussian, Inc.),
 the Gaussian 90(TM) system (copyright 1990, Gaussian, Inc.),
 the Gaussian 88(TM) system (copyright 1988, Gaussian, Inc.),
 the Gaussian 86(TM) system (copyright 1986, Carnegie Mellon
 University), and the Gaussian 82(TM) system (copyright 1983,
 Carnegie Mellon University). Gaussian is a federally registered
 trademark of Gaussian, Inc.
  
 This software contains proprietary and confidential information,
 including trade secrets, belonging to Gaussian, Inc.
  
 This software is provided under written license and may be
 used, copied, transmitted, or stored only in accord with that
 written license.
  
 The following legend is applicable only to US Government
 contracts under FAR:
  
                    RESTRICTED RIGHTS LEGEND
  
 Use, reproduction and disclosure by the US Government is
 subject to restrictions as set forth in subparagraphs (a)
 and (c) of the Commercial Computer Software - Restricted
 Rights clause in FAR 52.227-19.
  
 Gaussian, Inc.
 340 Quinnipiac St., Bldg. 40, Wallingford CT 06492
  
  
 ---------------------------------------------------------------
 Warning -- This program may not be used in any manner that
 competes with the business of Gaussian, Inc. or will provide
 assistance to any competitor of Gaussian, Inc.  The licensee
 of this program is prohibited from giving any competitor of
 Gaussian, Inc. access to this program.  By using this program,
 the user acknowledges that Gaussian, Inc. is engaged in the
 business of creating and licensing software in the field of
 computational chemistry and represents and warrants to the
 licensee that it is not a competitor of Gaussian, Inc. and that
 it will not use this program in any manner prohibited above.
 ---------------------------------------------------------------
  

 Cite this work as:
 Gaussian 09, Revision D.01,
 M. J. Frisch, G. W. Trucks, H. B. Schlegel, G. E. Scuseria, 
 M. A. Robb, J. R. Cheeseman, G. Scalmani, V. Barone, B. Mennucci, 
 G. A. Petersson, H. Nakatsuji, M. Caricato, X. Li, H. P. Hratchian, 
 A. F. Izmaylov, J. Bloino, G. Zheng, J. L. Sonnenberg, M. Hada, 
 M. Ehara, K. Toyota, R. Fukuda, J. Hasegawa, M. Ishida, T. Nakajima, 
 Y. Honda, O. Kitao, H. Nakai, T. Vreven, J. A. Montgomery, Jr., 
 J. E. Peralta, F. Ogliaro, M. Bearpark, J. J. Heyd, E. Brothers, 
 K. N. Kudin, V. N. Staroverov, T. Keith, R. Kobayashi, J. Normand, 
 K. Raghavachari, A. Rendell, J. C. Burant, S. S. Iyengar, J. Tomasi, 
 M. Cossi, N. Rega, J. M. Millam, M. Klene, J. E. Knox, J. B. Cross, 
 V. Bakken, C. Adamo, J. Jaramillo, R. Gomperts, R. E. Stratmann, 
 O. Yazyev, A. J. Austin, R. Cammi, C. Pomelli, J. W. Ochterski, 
 R. L. Martin, K. Morokuma, V. G. Zakrzewski, G. A. Voth, 
 P. Salvador, J. J. Dannenberg, S. Dapprich, A. D. Daniels, 
 O. Farkas, J. B. Foresman, J. V. Ortiz, J. Cioslowski, 
 and D. J. Fox, Gaussian, Inc., Wallingford CT, 2013.
 
 ******************************************
 Gaussian 09:  ES64L-G09RevD.01 24-Apr-2013
                22-Apr-2026 
 ******************************************
 -----------------------------------------------
 # RHF/6-31G(d) GFInput Opt Pop=Full IOP(6/80=1)
 -----------------------------------------------
 1/18=20,19=15,38=1/1,3;
 2/9=110,12=2,17=6,18=5,40=1/2;
 3/5=1,6=6,7=1,11=1,16=1,24=10,25=1,30=1,71=1,116=1/1,2,3;
 4//1;
 5/5=2,38=5/2;
 6/7=3,28=1,80=1/1;
 7//1,2,3,16;
 1/18=20,19=15/3(2);
 2/9=110/2;
 99//99;
 2/9=110/2;
 3/5=1,6=6,7=1,11=1,16=1,25=1,30=1,71=1,116=1/1,2,3;
 4/5=5,16=3,69=1/1;
 5/5=2,38=5/2;
 7//1,2,3,16;
 1/18=20,19=15/3(-5);
 2/9=110/2;
 6/7=3,19=2,28=1,80=1/1;
 99/9=1/99;
 -----------------------------------
 Optymalizacja cząsteczki formamidu
 -----------------------------------
 Symbolic Z-matrix:
 Charge =  0 Multiplicity = 1
 C                     0.        0.        0. 
 O                     0.        0.        1.22 
 H                     0.9431    0.       -0.5445 
 N                    -1.2644    0.       -0.73 
 H                    -1.07619   0.       -1.74266 
 H                    -1.80451  -0.84099  -0.48117 
 

 GradGradGradGradGradGradGradGradGradGradGradGradGradGradGradGradGradGrad
 Berny optimization.
 Initialization pass.
                           ----------------------------
                           !    Initial Parameters    !
                           ! (Angstroms and Degrees)  !
 --------------------------                            --------------------------
 ! Name  Definition              Value          Derivative Info.                !
 --------------------------------------------------------------------------------
 ! R1    R(1,2)                  1.22           estimate D2E/DX2                !
 ! R2    R(1,3)                  1.089          estimate D2E/DX2                !
 ! R3    R(1,4)                  1.46           estimate D2E/DX2                !
 ! R4    R(4,5)                  1.03           estimate D2E/DX2                !
 ! R5    R(4,6)                  1.03           estimate D2E/DX2                !
 ! A1    A(2,1,3)              120.0            estimate D2E/DX2                !
 ! A2    A(2,1,4)              120.0            estimate D2E/DX2                !
 ! A3    A(3,1,4)              120.0            estimate D2E/DX2                !
 ! A4    A(1,4,5)              109.4712         estimate D2E/DX2                !
 ! A5    A(1,4,6)              109.4712         estimate D2E/DX2                !
 ! A6    A(5,4,6)              109.4712         estimate D2E/DX2                !
 ! D1    D(2,1,4,5)            180.0            estimate D2E/DX2                !
 ! D2    D(2,1,4,6)            -60.0            estimate D2E/DX2                !
 ! D3    D(3,1,4,5)              0.0            estimate D2E/DX2                !
 ! D4    D(3,1,4,6)            120.0            estimate D2E/DX2                !
 --------------------------------------------------------------------------------
 Trust Radius=3.00D-01 FncErr=1.00D-07 GrdErr=1.00D-07
 Number of steps in this run=     25 maximum allowed number of steps=    100.
 GradGradGradGradGradGradGradGradGradGradGradGradGradGradGradGradGradGrad

                          Input orientation:                          
 ---------------------------------------------------------------------
 Center     Atomic      Atomic             Coordinates (Angstroms)
 Number     Number       Type             X           Y           Z
 ---------------------------------------------------------------------
      1          6           0        0.000000    0.000000    0.000000
      2          8           0        0.000000    0.000000    1.220000
      3          1           0        0.943102    0.000000   -0.544500
      4          7           0       -1.264397    0.000000   -0.730000
      5          1           0       -1.076186    0.000000   -1.742658
      6          1           0       -1.804506   -0.840991   -0.481171
 ---------------------------------------------------------------------
                    Distance matrix (angstroms):
                    1          2          3          4          5
     1  C    0.000000
     2  O    1.220000   0.000000
     3  H    1.089000   2.000725   0.000000
     4  N    1.460000   2.324048   2.215279   0.000000
     5  H    2.048178   3.152066   2.348001   1.030000   0.000000
     6  H    2.048178   2.618681   2.874131   1.030000   1.681983
                    6
     6  H    0.000000
 Stoichiometry    CH3NO
 Framework group  C1[X(CH3NO)]
 Deg. of freedom    12
 Full point group                 C1      NOp   1
 Largest Abelian subgroup         C1      NOp   1
 Largest concise Abelian subgroup C1      NOp   1
                         Standard orientation:                         
 ---------------------------------------------------------------------
 Center     Atomic      Atomic             Coordinates (Angstroms)
 Number     Number       Type             X           Y           Z
 ---------------------------------------------------------------------
      1          6           0       -0.191016    0.414524    0.033494
      2          8           0       -1.196031   -0.274559   -0.025767
      3          1           0       -0.275692    1.488163    0.194898
      4          7           0        1.125229   -0.200242   -0.111979
      5          1           0        1.853025    0.524615   -0.035857
      6          1           0        1.260412   -0.901757    0.629979
 ---------------------------------------------------------------------
 Rotational constants (GHZ):     65.3025308     10.8377870      9.5056208
 Standard basis: 6-31G(d) (6D, 7F)
 AO basis set in the form of general basis input (Overlap normalization):
      1 0
 S   6 1.00       0.000000000000
      0.3047524880D+04  0.1834737132D-02
      0.4573695180D+03  0.1403732281D-01
      0.1039486850D+03  0.6884262226D-01
      0.2921015530D+02  0.2321844432D+00
      0.9286662960D+01  0.4679413484D+00
      0.3163926960D+01  0.3623119853D+00
 SP   3 1.00       0.000000000000
      0.7868272350D+01 -0.1193324198D+00  0.6899906659D-01
      0.1881288540D+01 -0.1608541517D+00  0.3164239610D+00
      0.5442492580D+00  0.1143456438D+01  0.7443082909D+00
 SP   1 1.00       0.000000000000
      0.1687144782D+00  0.1000000000D+01  0.1000000000D+01
 D   1 1.00       0.000000000000
      0.8000000000D+00  0.1000000000D+01
 ****
      2 0
 S   6 1.00       0.000000000000
      0.5484671660D+04  0.1831074430D-02
      0.8252349460D+03  0.1395017220D-01
      0.1880469580D+03  0.6844507810D-01
      0.5296450000D+02  0.2327143360D+00
      0.1689757040D+02  0.4701928980D+00
      0.5799635340D+01  0.3585208530D+00
 SP   3 1.00       0.000000000000
      0.1553961625D+02 -0.1107775495D+00  0.7087426823D-01
      0.3599933586D+01 -0.1480262627D+00  0.3397528391D+00
      0.1013761750D+01  0.1130767015D+01  0.7271585773D+00
 SP   1 1.00       0.000000000000
      0.2700058226D+00  0.1000000000D+01  0.1000000000D+01
 D   1 1.00       0.000000000000
      0.8000000000D+00  0.1000000000D+01
 ****
      3 0
 S   3 1.00       0.000000000000
      0.1873113696D+02  0.3349460434D-01
      0.2825394365D+01  0.2347269535D+00
      0.6401216923D+00  0.8137573261D+00
 S   1 1.00       0.000000000000
      0.1612777588D+00  0.1000000000D+01
 ****
      4 0
 S   6 1.00       0.000000000000
      0.4173511460D+04  0.1834772160D-02
      0.6274579110D+03  0.1399462700D-01
      0.1429020930D+03  0.6858655181D-01
      0.4023432930D+02  0.2322408730D+00
      0.1282021290D+02  0.4690699481D+00
      0.4390437010D+01  0.3604551991D+00
 SP   3 1.00       0.000000000000
      0.1162636186D+02 -0.1149611817D+00  0.6757974388D-01
      0.2716279807D+01 -0.1691174786D+00  0.3239072959D+00
      0.7722183966D+00  0.1145851947D+01  0.7408951398D+00
 SP   1 1.00       0.000000000000
      0.2120314975D+00  0.1000000000D+01  0.1000000000D+01
 D   1 1.00       0.000000000000
      0.8000000000D+00  0.1000000000D+01
 ****
      5 0
 S   3 1.00       0.000000000000
      0.1873113696D+02  0.3349460434D-01
      0.2825394365D+01  0.2347269535D+00
      0.6401216923D+00  0.8137573261D+00
 S   1 1.00       0.000000000000
      0.1612777588D+00  0.1000000000D+01
 ****
      6 0
 S   3 1.00       0.000000000000
      0.1873113696D+02  0.3349460434D-01
      0.2825394365D+01  0.2347269535D+00
      0.6401216923D+00  0.8137573261D+00
 S   1 1.00       0.000000000000
      0.1612777588D+00  0.1000000000D+01
 ****

 There are    51 symmetry adapted cartesian basis functions of A   symmetry.
 There are    51 symmetry adapted basis functions of A   symmetry.
    51 basis functions,    96 primitive gaussians,    51 cartesian basis functions
    12 alpha electrons       12 beta electrons
       nuclear repulsion energy        69.4745068970 Hartrees.
 NAtoms=    6 NActive=    6 NUniq=    6 SFac= 1.00D+00 NAtFMM=   60 NAOKFM=F Big=F
 Integral buffers will be    131072 words long.
 Raffenetti 1 integral format.
 Two-electron integral symmetry is turned on.
 One-electron integrals computed using PRISM.
 NBasis=    51 RedAO= T EigKep=  6.33D-03  NBF=    51
 NBsUse=    51 1.00D-06 EigRej= -1.00D+00 NBFU=    51
 ExpMin= 1.61D-01 ExpMax= 5.48D+03 ExpMxC= 8.25D+02 IAcc=1 IRadAn=         1 AccDes= 0.00D+00
 Harris functional with IExCor=  205 and IRadAn=       1 diagonalized for initial guess.
 HarFok:  IExCor=  205 AccDes= 0.00D+00 IRadAn=         1 IDoV= 1 UseB2=F ITyADJ=14
 ICtDFT=  3500011 ScaDFX=  1.000000  1.000000  1.000000  1.000000
 FoFCou: FMM=F IPFlag=           0 FMFlag=      100000 FMFlg1=           0
         NFxFlg=           0 DoJE=T BraDBF=F KetDBF=T FulRan=T
         wScrn=  0.000000 ICntrl=     500 IOpCl=  0 I1Cent=   200000004 NGrid=           0
         NMat0=    1 NMatS0=      1 NMatT0=    0 NMatD0=    1 NMtDS0=    0 NMtDT0=    0
 Petite list used in FoFCou.
 Keep R1 ints in memory in canonical form, NReq=1744878.
 Requested convergence on RMS density matrix=1.00D-08 within 128 cycles.
 Requested convergence on MAX density matrix=1.00D-06.
 Requested convergence on             energy=1.00D-06.
 No special actions if energy rises.
 SCF Done:  E(RHF) =  -168.909227212     A.U. after   13 cycles
            NFock= 13  Conv=0.68D-08     -V/T= 2.0042

 **********************************************************************

            Population analysis using the SCF density.

 **********************************************************************

 Orbital symmetries:
       Occupied  (A) (A) (A) (A) (A) (A) (A) (A) (A) (A) (A) (A)
       Virtual   (A) (A) (A) (A) (A) (A) (A) (A) (A) (A) (A) (A)
                 (A) (A) (A) (A) (A) (A) (A) (A) (A) (A) (A) (A)
                 (A) (A) (A) (A) (A) (A) (A) (A) (A) (A) (A) (A)
                 (A) (A) (A)
 The electronic state is 1-A.
 Alpha  occ. eigenvalues --  -20.55995 -15.59418 -11.36969  -1.38988  -1.18907
 Alpha  occ. eigenvalues --   -0.83466  -0.71244  -0.66597  -0.61608  -0.54360
 Alpha  occ. eigenvalues --   -0.44920  -0.42626
 Alpha virt. eigenvalues --    0.15783   0.21693   0.25086   0.30852   0.41801
 Alpha virt. eigenvalues --    0.48541   0.74983   0.78430   0.85095   0.92793
 Alpha virt. eigenvalues --    0.95337   1.01932   1.05666   1.10891   1.14485
 Alpha virt. eigenvalues --    1.17268   1.18823   1.29324   1.35332   1.46162
 Alpha virt. eigenvalues --    1.65523   1.68895   1.78849   1.98086   2.09113
 Alpha virt. eigenvalues --    2.11314   2.13520   2.30055   2.43091   2.55806
 Alpha virt. eigenvalues --    2.64269   2.72768   2.91800   2.94707   3.20335
 Alpha virt. eigenvalues --    3.30779   4.13250   4.19166   4.54729
     Molecular Orbital Coefficients:
                           1         2         3         4         5
                           O         O         O         O         O
     Eigenvalues --   -20.55995 -15.59418 -11.36969  -1.38988  -1.18907
   1 1   C  1S          0.00000   0.00000   0.99576  -0.11751  -0.04231
   2        2S          0.00048   0.00026   0.02588   0.22912   0.08617
   3        2PX         0.00006   0.00023   0.00000  -0.12607   0.16850
   4        2PY         0.00003  -0.00010  -0.00040  -0.10268  -0.00390
   5        2PZ         0.00000  -0.00002  -0.00008  -0.00807  -0.00206
   6        3S         -0.00029   0.00107  -0.00646   0.07001   0.03602
   7        3PX         0.00040   0.00070  -0.00100   0.00671   0.00804
   8        3PY         0.00027  -0.00022  -0.00151   0.02091   0.00756
   9        3PZ         0.00003   0.00010  -0.00013   0.00401   0.00048
  10        4XX        -0.00053  -0.00016  -0.00122   0.01745   0.01323
  11        4YY        -0.00026  -0.00007  -0.00152   0.00090   0.00019
  12        4ZZ        -0.00002  -0.00009  -0.00248  -0.01749  -0.00407
  13        4XY        -0.00039   0.00004   0.00034   0.02331  -0.02095
  14        4XZ        -0.00003   0.00003   0.00001   0.00191  -0.00262
  15        4YZ        -0.00003  -0.00001   0.00012   0.00156   0.00093
  16 2   O  1S          0.99471   0.00000  -0.00036  -0.18932   0.06213
  17        2S          0.02096  -0.00004   0.00031   0.42065  -0.13830
  18        2PX         0.00128  -0.00003   0.00027   0.11158  -0.00197
  19        2PY         0.00087  -0.00001   0.00019   0.07404  -0.02302
  20        2PZ         0.00010   0.00001   0.00002   0.00643  -0.00175
  21        3S          0.00440   0.00013  -0.00103   0.37302  -0.13889
  22        3PX        -0.00005  -0.00007  -0.00096   0.04278   0.00006
  23        3PY        -0.00002   0.00016  -0.00052   0.02594  -0.00991
  24        3PZ        -0.00001  -0.00003  -0.00005   0.00308  -0.00078
  25        4XX        -0.00368  -0.00006  -0.00008   0.01258  -0.00005
  26        4YY        -0.00378   0.00003  -0.00001   0.00430  -0.00327
  27        4ZZ        -0.00414  -0.00006   0.00015  -0.00106   0.00104
  28        4XY         0.00016   0.00002   0.00003   0.01084  -0.00224
  29        4XZ        -0.00001   0.00000   0.00002   0.00127  -0.00014
  30        4YZ         0.00005   0.00000  -0.00002   0.00034  -0.00045
  31 3   H  1S         -0.00003  -0.00006  -0.00016   0.03200   0.02094
  32        2S         -0.00012  -0.00005   0.00241  -0.01123   0.00113
  33 4   N  1S          0.00000   0.99503  -0.00017  -0.03718  -0.18766
  34        2S         -0.00001   0.02477   0.00028   0.07726   0.39048
  35        2PX         0.00003  -0.00010   0.00006  -0.03161  -0.01165
  36        2PY         0.00000   0.00064  -0.00005   0.01014   0.04166
  37        2PZ         0.00000   0.00117   0.00003   0.01051   0.06403
  38        3S          0.00000  -0.00231   0.00062   0.07079   0.42181
  39        3PX         0.00006   0.00035   0.00003  -0.01378  -0.00399
  40        3PY        -0.00001  -0.00059   0.00041   0.00268   0.02646
  41        3PZ         0.00001  -0.00082  -0.00019   0.00567   0.04065
  42        4XX        -0.00006  -0.00343  -0.00057   0.00805   0.00871
  43        4YY         0.00002  -0.00337  -0.00010   0.00117   0.01159
  44        4ZZ        -0.00003  -0.00325   0.00005   0.00001   0.00164
  45        4XY        -0.00003   0.00002   0.00026  -0.00303   0.00259
  46        4XZ         0.00000   0.00002   0.00006  -0.00139   0.00153
  47        4YZ         0.00001   0.00007   0.00001  -0.00125  -0.00794
  48 5   H  1S          0.00000   0.00029  -0.00006   0.01556   0.12246
  49        2S         -0.00008   0.00053   0.00021  -0.00352   0.00302
  50 6   H  1S          0.00001   0.00027   0.00002   0.01827   0.11874
  51        2S         -0.00004   0.00049   0.00043   0.00042   0.00205
                           6         7         8         9        10
                           O         O         O         O         O
     Eigenvalues --    -0.83466  -0.71244  -0.66597  -0.61608  -0.54360
   1 1   C  1S         -0.14427   0.03196   0.01357  -0.01371  -0.00758
   2        2S          0.31177  -0.08020  -0.03004   0.04899   0.01558
   3        2PX         0.05408  -0.09633   0.23065  -0.27099   0.02591
   4        2PY         0.18984   0.27938  -0.11336  -0.20056  -0.12005
   5        2PZ         0.01554   0.02891  -0.10636  -0.08446   0.27903
   6        3S          0.26110  -0.03536  -0.05639  -0.04755  -0.00900
   7        3PX         0.03938  -0.02744   0.05652  -0.05643   0.02429
   8        3PY         0.09625   0.07730  -0.03496  -0.04444  -0.05389
   9        3PZ         0.01497   0.00194  -0.03793  -0.04019   0.17388
  10        4XX        -0.00383  -0.00084   0.00995   0.00912   0.00299
  11        4YY         0.02050   0.00211  -0.01095  -0.01657  -0.00292
  12        4ZZ        -0.01116   0.00336   0.00246  -0.00369  -0.00463
  13        4XY        -0.00670   0.00606  -0.00432   0.02471   0.01196
  14        4XZ        -0.00262   0.00040  -0.00468   0.00237  -0.01482
  15        4YZ         0.00626   0.00146   0.00453   0.00159  -0.01866
  16 2   O  1S          0.07512  -0.04012  -0.03419   0.05772   0.00365
  17        2S         -0.17543   0.08560   0.07064  -0.13000  -0.01147
  18        2PX         0.08345  -0.24028  -0.04577   0.36497   0.12288
  19        2PY         0.12282   0.08084  -0.21490   0.25913  -0.09397
  20        2PZ         0.00858   0.01137  -0.09257  -0.04619   0.36860
  21        3S         -0.21478   0.16598   0.16554  -0.26447  -0.01113
  22        3PX         0.04891  -0.12650  -0.01105   0.21421   0.08417
  23        3PY         0.06079   0.05084  -0.11883   0.15105  -0.06291
  24        3PZ         0.00147   0.00678  -0.05778  -0.03195   0.25646
  25        4XX        -0.00029  -0.01972   0.00152   0.01949   0.00849
  26        4YY         0.00322   0.00810  -0.01394   0.00375  -0.01077
  27        4ZZ        -0.00217  -0.00016  -0.00158  -0.00650   0.00151
  28        4XY         0.00924  -0.00218  -0.01103   0.02026  -0.00195
  29        4XZ         0.00053  -0.00059  -0.00707  -0.00296   0.02659
  30        4YZ         0.00030   0.00124  -0.00579  -0.00227   0.01717
  31 3   H  1S          0.21363   0.11322  -0.09392  -0.10207  -0.04522
  32        2S          0.08166   0.08262  -0.06074  -0.08641  -0.03751
  33 4   N  1S          0.04783  -0.00577  -0.00481  -0.00869   0.03119
  34        2S         -0.10052   0.00838   0.01175   0.01890  -0.07588
  35        2PX        -0.15909   0.32104  -0.11547   0.18154   0.03409
  36        2PY         0.12039   0.16946   0.31871   0.09230   0.20847
  37        2PZ        -0.04945  -0.03248  -0.21650  -0.12733   0.18663
  38        3S         -0.15105   0.01882   0.02046   0.04010  -0.11891
  39        3PX        -0.08367   0.17888  -0.07420   0.11138   0.01264
  40        3PY         0.04869   0.09987   0.19338   0.05914   0.15387
  41        3PZ        -0.03073  -0.01585  -0.14008  -0.08269   0.14023
  42        4XX         0.00734  -0.00303   0.01640   0.00900   0.00050
  43        4YY        -0.00220   0.01341   0.00476   0.00353   0.00034
  44        4ZZ        -0.00750  -0.00764  -0.02568  -0.01131   0.00231
  45        4XY        -0.01399   0.02462   0.00132   0.01816   0.00742
  46        4XZ        -0.00819   0.01270  -0.00428   0.00868  -0.00759
  47        4YZ         0.01226   0.00981   0.02254   0.00465   0.01808
  48 5   H  1S         -0.05349   0.20768   0.08170   0.13067   0.08896
  49        2S         -0.01663   0.10771   0.04510   0.07936   0.06299
  50 6   H  1S         -0.11002  -0.05183  -0.23080  -0.07349  -0.04406
  51        2S         -0.03775  -0.02360  -0.11486  -0.04673  -0.02607
                          11        12        13        14        15
                           O         O         V         V         V
     Eigenvalues --    -0.44920  -0.42626   0.15783   0.21693   0.25086
   1 1   C  1S          0.01060  -0.00286   0.00641  -0.00423   0.08944
   2        2S         -0.01834   0.01493  -0.01455   0.03336  -0.09289
   3        2PX         0.02454   0.06912  -0.00601  -0.05484  -0.05567
   4        2PY        -0.07618  -0.10617  -0.05836   0.11080  -0.19430
   5        2PZ         0.06677  -0.07786   0.42823  -0.07356  -0.09416
   6        3S         -0.03363  -0.06793  -0.01556   0.02425  -1.51124
   7        3PX        -0.06540  -0.01849  -0.00709  -0.18386  -0.08793
   8        3PY        -0.02026   0.00876  -0.16649   0.25705  -0.60309
   9        3PZ         0.05848  -0.03944   0.66682  -0.17776  -0.26647
  10        4XX         0.03200   0.03572   0.00045   0.00335   0.00652
  11        4YY        -0.03162  -0.03780  -0.00202   0.00601   0.01152
  12        4ZZ         0.00008  -0.00218   0.00282  -0.00547  -0.00370
  13        4XY        -0.01814  -0.00970  -0.00545  -0.00115  -0.01071
  14        4XZ        -0.02706   0.02538   0.01878  -0.00213  -0.00166
  15        4YZ        -0.00899  -0.00150   0.02469  -0.00380  -0.00195
  16 2   O  1S          0.00190  -0.00264   0.00170  -0.00631  -0.00646
  17        2S          0.00189   0.00680   0.00769   0.02676   0.01210
  18        2PX        -0.27134  -0.16081  -0.01276   0.06063   0.01787
  19        2PY         0.35557   0.30446   0.03557  -0.07577   0.03596
  20        2PZ         0.28342  -0.19807  -0.33746   0.07666   0.07250
  21        3S         -0.04083   0.01767  -0.06074   0.01229   0.06983
  22        3PX        -0.21266  -0.12323  -0.03675   0.09925   0.01156
  23        3PY         0.26149   0.24086   0.05266  -0.11096   0.13002
  24        3PZ         0.21674  -0.16141  -0.47534   0.11257   0.12003
  25        4XX        -0.01450  -0.00832   0.00308   0.00780   0.00360
  26        4YY         0.01603   0.01082   0.00415   0.00303   0.00288
  27        4ZZ         0.00400  -0.00151   0.00297   0.00244  -0.00671
  28        4XY         0.00497   0.00738  -0.00044   0.00349   0.00019
  29        4XZ         0.01415  -0.01310  -0.00113   0.00062  -0.00053
  30        4YZ         0.01228  -0.00865   0.00158   0.00072   0.00219
  31 3   H  1S         -0.10287  -0.13011   0.02244   0.04236   0.04287
  32        2S         -0.12637  -0.16917   0.11364  -0.29012   1.62093
  33 4   N  1S         -0.04914   0.02230  -0.04178  -0.10604  -0.03720
  34        2S          0.10897  -0.06867   0.05602   0.09254   0.05337
  35        2PX        -0.15911  -0.12855   0.02615   0.15418  -0.14014
  36        2PY        -0.04698   0.20763  -0.06186   0.05929  -0.10223
  37        2PZ        -0.24358   0.36147  -0.08830   0.14582   0.13491
  38        3S          0.26409  -0.01743   0.49196   1.70212   0.48925
  39        3PX        -0.11761  -0.11983   0.07257   0.38180  -0.34296
  40        3PY        -0.01268   0.19410  -0.14354   0.16804  -0.29660
  41        3PZ        -0.20944   0.33909  -0.06054   0.43230   0.40268
  42        4XX         0.00574  -0.00588  -0.00709  -0.03300  -0.00434
  43        4YY        -0.00261  -0.00582  -0.01457  -0.02952  -0.00951
  44        4ZZ        -0.01246   0.01085  -0.01108  -0.03045  -0.00161
  45        4XY        -0.00846  -0.00637   0.00672   0.00114   0.00807
  46        4XZ        -0.00684  -0.00538  -0.02038   0.01108  -0.00143
  47        4YZ        -0.00400   0.01356   0.01301  -0.00336  -0.00405
  48 5   H  1S         -0.07157   0.01448  -0.00538  -0.04231   0.03438
  49        2S         -0.07788  -0.00480  -0.12035  -1.35080   0.59532
  50 6   H  1S         -0.06368   0.02930  -0.09748  -0.02196  -0.02669
  51        2S         -0.05806  -0.00664  -0.53797  -0.93707  -0.98436
                          16        17        18        19        20
                           V         V         V         V         V
     Eigenvalues --     0.30852   0.41801   0.48541   0.74983   0.78430
   1 1   C  1S          0.07369   0.02253  -0.09179  -0.00468  -0.03584
   2        2S         -0.11441   0.04138   0.04374   0.05808  -0.83036
   3        2PX        -0.04530   0.15677   0.32213  -0.00705  -0.67439
   4        2PY        -0.15010  -0.01606  -0.34285   0.13175   0.26808
   5        2PZ         0.00039   0.01824  -0.06485  -1.04226   0.00499
   6        3S         -1.12555  -1.28423   2.00581  -0.08589   1.92182
   7        3PX        -0.25630   2.25959   0.66211   0.05989   1.18115
   8        3PY        -0.75402   0.71824  -1.76560  -0.15440  -0.95257
   9        3PZ         0.04719   0.01992  -0.35783   1.19585  -0.04556
  10        4XX         0.01364  -0.00756  -0.00476  -0.01218  -0.08754
  11        4YY        -0.00849  -0.00761  -0.01281   0.00298  -0.11547
  12        4ZZ        -0.00066  -0.00163   0.02629   0.01050  -0.00575
  13        4XY         0.00479   0.01134   0.02379   0.00115   0.02757
  14        4XZ        -0.00274  -0.00022   0.01161  -0.00423   0.00867
  15        4YZ         0.00139   0.00085  -0.01243   0.02726  -0.01725
  16 2   O  1S          0.00108  -0.10350   0.05212  -0.00118   0.02202
  17        2S          0.03130   0.03713  -0.03248   0.00270  -0.13320
  18        2PX         0.04605   0.06261  -0.13623  -0.01446  -0.02718
  19        2PY         0.04235   0.13731   0.05781   0.00443   0.06643
  20        2PZ        -0.04239   0.01501   0.03021  -0.03248   0.01122
  21        3S         -0.20297   2.25133  -1.07239   0.03880  -0.21863
  22        3PX        -0.03680   0.64181  -0.68480   0.01270  -0.37941
  23        3PY         0.07910   0.66975   0.07255   0.03535   0.02006
  24        3PZ        -0.05587   0.06299   0.06536  -0.11741  -0.00575
  25        4XX         0.00492  -0.02130   0.00697   0.00143  -0.07147
  26        4YY         0.01204  -0.04815   0.00371   0.00893  -0.00133
  27        4ZZ         0.00894  -0.07208   0.04566  -0.00708  -0.00249
  28        4XY        -0.00279   0.04280  -0.01810   0.01094   0.02374
  29        4XZ        -0.00052   0.00485  -0.00062  -0.07011  -0.00115
  30        4YZ        -0.00090   0.00386  -0.00629  -0.04220  -0.00011
  31 3   H  1S          0.00169   0.00136  -0.13351   0.01734  -0.23260
  32        2S          1.44186   0.16580   1.07765  -0.00806   0.28560
  33 4   N  1S         -0.01800   0.01599   0.07031  -0.00190  -0.00703
  34        2S          0.03121   0.01523  -0.10647   0.05345  -0.00590
  35        2PX         0.01842   0.07823   0.29961   0.03495   0.16605
  36        2PY         0.27569  -0.05806  -0.10015  -0.07857  -0.10560
  37        2PZ        -0.11077  -0.03815   0.05446  -0.09179   0.10821
  38        3S          0.20352  -0.65021  -1.14033  -0.02270  -0.82230
  39        3PX         0.15215   0.36496   1.52286  -0.03339   0.20026
  40        3PY         0.98802  -0.41925  -0.27859   0.00986   0.08676
  41        3PZ        -0.35572  -0.08768   0.06846  -0.08804  -0.15292
  42        4XX        -0.00614  -0.00342   0.03092   0.03540  -0.14750
  43        4YY         0.01064   0.02130  -0.01839   0.01101   0.01460
  44        4ZZ        -0.00814   0.00956   0.00479  -0.00142   0.06679
  45        4XY         0.00781  -0.01851  -0.01150  -0.00432   0.08011
  46        4XZ         0.00038   0.00243   0.01031   0.03594   0.00904
  47        4YZ         0.00941  -0.00505   0.00908  -0.00278  -0.01323
  48 5   H  1S         -0.02324  -0.09874  -0.04619   0.02555   0.02129
  49        2S         -1.20494  -0.25703  -0.50884   0.02955  -0.27419
  50 6   H  1S          0.02839   0.04954  -0.06284  -0.05096   0.15899
  51        2S          1.23897  -0.06115  -0.37384  -0.10018  -0.31201
                          21        22        23        24        25
                           V         V         V         V         V
     Eigenvalues --     0.85095   0.92793   0.95337   1.01932   1.05666
   1 1   C  1S         -0.01457  -0.05553  -0.00862   0.01475  -0.02427
   2        2S         -0.39800   0.54376   0.31756  -0.43836  -0.94275
   3        2PX         0.20323  -0.33503  -0.67842  -0.11580   0.11724
   4        2PY        -0.31588  -0.49153  -0.41431   0.18214  -0.58359
   5        2PZ        -0.05305   0.05495  -0.09482   0.08146  -0.10851
   6        3S          0.79784  -0.90949   0.86549   1.18107   1.38096
   7        3PX        -0.95408   0.00571   0.75553   0.50744  -0.04800
   8        3PY         1.30032   0.91413   0.08909  -0.42609   2.37141
   9        3PZ         0.30602  -0.10143   0.10032  -0.54554   0.32151
  10        4XX        -0.01393  -0.16021   0.07677   0.06129  -0.19215
  11        4YY        -0.12776   0.04151  -0.00455  -0.03364  -0.03155
  12        4ZZ         0.01812   0.08807   0.02337  -0.04305  -0.04387
  13        4XY         0.06415  -0.06296  -0.14563  -0.02180  -0.08519
  14        4XZ        -0.00606  -0.02328  -0.00903   0.03717   0.03520
  15        4YZ        -0.01735  -0.00654   0.00182  -0.03495  -0.01378
  16 2   O  1S          0.00245   0.02652   0.04177  -0.00545  -0.01327
  17        2S          0.03303  -0.14565  -0.07330   0.00766   0.14081
  18        2PX         0.23485  -0.22428  -0.09652   0.07032  -0.20284
  19        2PY        -0.20205  -0.15318  -0.14661   0.05350  -0.14909
  20        2PZ        -0.05250  -0.01111  -0.01520   0.09082   0.00903
  21        3S         -0.25284   0.42482  -0.17331  -0.13879   0.36548
  22        3PX         0.02594  -0.02649  -0.45122  -0.07615   0.64773
  23        3PY        -0.19411  -0.09537  -0.27369  -0.01647   0.11028
  24        3PZ        -0.04639   0.01197  -0.03645   0.04405  -0.00842
  25        4XX        -0.00913   0.09922   0.04923  -0.06820   0.15368
  26        4YY         0.00018  -0.02370   0.03079   0.02027   0.02719
  27        4ZZ         0.03693  -0.07187  -0.03186   0.01545   0.03748
  28        4XY        -0.01126   0.09348   0.10809  -0.01371   0.00083
  29        4XZ        -0.00084   0.02106   0.00310   0.02106  -0.00731
  30        4YZ        -0.00118   0.00436   0.00554  -0.02714  -0.01066
  31 3   H  1S         -0.56915   0.03090  -0.00339  -0.12245   0.16239
  32        2S         -0.65523  -0.34672  -0.10949   0.14417  -1.99290
  33 4   N  1S         -0.01640   0.00906  -0.01157  -0.03367  -0.01242
  34        2S         -0.00701   0.01043   0.15417   0.34720  -0.17208
  35        2PX        -0.00810   0.26541  -0.42141  -0.25232   0.10709
  36        2PY        -0.20881  -0.30612   0.28251  -0.08729   0.06084
  37        2PZ        -0.09149  -0.53253   0.30024  -0.53389   0.23482
  38        3S          0.64848   0.25001  -0.54785  -0.71958   0.60144
  39        3PX        -0.19909  -0.78866   0.96726   0.85549  -0.62790
  40        3PY         0.45977   0.34681  -0.36032  -0.31257  -0.63649
  41        3PZ        -0.04731   0.50287  -0.30762   1.06884  -0.14110
  42        4XX        -0.03806   0.08907  -0.00714   0.06047   0.00588
  43        4YY         0.00926   0.01295  -0.04868   0.01881  -0.03202
  44        4ZZ         0.03604  -0.00871   0.06257   0.07059  -0.08886
  45        4XY        -0.11216   0.04361  -0.01240   0.00749   0.08276
  46        4XZ        -0.00097   0.01459  -0.00139   0.01284  -0.01518
  47        4YZ        -0.03838  -0.04268   0.01516   0.12730   0.08757
  48 5   H  1S         -0.45554   0.28897  -0.33745  -0.20742   0.36796
  49        2S          0.26036  -0.09552  -0.06526  -0.11735  -0.12386
  50 6   H  1S          0.27137   0.15908  -0.13579  -0.74924  -0.44784
  51        2S         -0.05840   0.10864   0.02547   0.03106   0.30236
                          26        27        28        29        30
                           V         V         V         V         V
     Eigenvalues --     1.10891   1.14485   1.17268   1.18823   1.29324
   1 1   C  1S          0.06101  -0.00369   0.01723   0.00032  -0.00481
   2        2S         -0.49533  -0.50855   0.31514   0.07838  -0.12726
   3        2PX        -0.00533   0.00705   0.00709  -0.02731   0.01131
   4        2PY        -0.47197   0.06807   0.03647  -0.00721  -0.04271
   5        2PZ        -0.06372   0.00927   0.04753  -0.04230   0.09049
   6        3S          1.61460   1.66914  -0.63405   0.05692   0.46158
   7        3PX        -0.04627   0.34718  -0.13173   0.36664   0.13736
   8        3PY         0.31184  -1.52310  -0.25960   0.85274   0.28668
   9        3PZ         0.04687  -0.18796  -0.01439   0.11208  -0.52253
  10        4XX         0.04288  -0.07893   0.02733   0.11989   0.03241
  11        4YY         0.13919   0.02884   0.05452  -0.05482  -0.03640
  12        4ZZ        -0.14743   0.00056  -0.01475  -0.00804  -0.00370
  13        4XY         0.14667  -0.09724   0.03931   0.08314  -0.02303
  14        4XZ        -0.00242  -0.05450   0.04144   0.00330   0.06538
  15        4YZ         0.05030   0.03137  -0.01045  -0.00630  -0.00268
  16 2   O  1S         -0.00907   0.02106  -0.00615  -0.01969  -0.00256
  17        2S         -0.30582   0.45724  -0.05216  -0.29372  -0.02962
  18        2PX         0.42011  -0.13986   0.21097   0.28253  -0.09875
  19        2PY         0.35249  -0.14484   0.04337   0.05763   0.22280
  20        2PZ         0.02768  -0.02208  -0.12355   0.08808  -0.91943
  21        3S          0.20699  -1.48605   0.10416   0.97012   0.10366
  22        3PX        -0.73465  -0.05720  -0.26686  -0.20573   0.15812
  23        3PY        -0.46049   0.33479  -0.07944  -0.19838  -0.30441
  24        3PZ        -0.03478   0.03201   0.12321  -0.10784   1.18327
  25        4XX        -0.14501   0.14854  -0.06268  -0.14731  -0.03049
  26        4YY        -0.21407   0.14704  -0.03043  -0.10035   0.00838
  27        4ZZ        -0.10602   0.21804  -0.03341  -0.13258  -0.00737
  28        4XY        -0.08936   0.02048   0.01086  -0.01265   0.00654
  29        4XZ        -0.01040   0.00605   0.00215  -0.00365  -0.02918
  30        4YZ        -0.01200  -0.00141  -0.00177   0.00277  -0.03696
  31 3   H  1S          0.73969   0.34650  -0.08535  -0.48833  -0.06797
  32        2S         -1.19791   0.33144   0.37671  -0.07200  -0.15624
  33 4   N  1S          0.00261   0.02368   0.00164   0.01175   0.01005
  34        2S          0.07105  -0.29287   0.16299  -0.64601   0.08534
  35        2PX        -0.02489  -0.68671  -0.21458  -0.37449  -0.04836
  36        2PY         0.00203  -0.25689  -0.84033   0.21450   0.12666
  37        2PZ        -0.10053  -0.21323   0.46847  -0.20425  -0.10509
  38        3S         -0.30363  -0.01714  -0.30385   1.39045  -0.26671
  39        3PX         0.18271   1.71895   0.19799   0.18391   0.13245
  40        3PY        -0.00223   0.64019   1.23837  -0.88120  -0.38504
  41        3PZ         0.06736   0.14310  -0.69243   0.35025   0.25969
  42        4XX        -0.00424  -0.04313   0.08540  -0.15021   0.02559
  43        4YY        -0.00440  -0.11760   0.03144   0.04729   0.05421
  44        4ZZ         0.04121   0.01287  -0.02352  -0.23726  -0.01613
  45        4XY         0.00284   0.05964   0.05793   0.05881   0.00294
  46        4XZ         0.01136   0.03038  -0.03884   0.00711  -0.01111
  47        4YZ        -0.03714  -0.11226   0.06342   0.03635  -0.03051
  48 5   H  1S         -0.11793   0.15498   0.35940   0.73844   0.06509
  49        2S          0.09868  -1.06454  -0.87099  -0.70764   0.07627
  50 6   H  1S          0.15220   0.45533  -0.42303   0.10816   0.04449
  51        2S         -0.15817  -0.49278   1.30590  -0.73409  -0.25225
                          31        32        33        34        35
                           V         V         V         V         V
     Eigenvalues --     1.35332   1.46162   1.65523   1.68895   1.78849
   1 1   C  1S          0.00379   0.01622  -0.01152  -0.02703   0.00476
   2        2S          0.13781   0.35190  -0.03754  -0.09465   0.00054
   3        2PX        -0.11845  -0.03958   0.00920   0.09374  -0.05157
   4        2PY         0.23013  -0.01914   0.03302   0.02981   0.04687
   5        2PZ         0.03995  -0.01758   0.06091  -0.04712  -0.18640
   6        3S         -0.78348  -2.45683  -1.56272  -2.16387   0.12229
   7        3PX         0.62379  -1.53760   0.56077   1.42799  -0.28992
   8        3PY        -1.08358   0.92954   0.78384   1.09865  -0.07310
   9        3PZ        -0.33166   0.08199   0.02251   0.19725   0.10801
  10        4XX        -0.12585  -0.01769  -0.06499  -0.04749  -0.01954
  11        4YY         0.15465   0.03520  -0.03534   0.12195   0.15557
  12        4ZZ        -0.00611  -0.05425   0.07119  -0.09922  -0.14072
  13        4XY         0.03283  -0.00231  -0.05012  -0.26259   0.06415
  14        4XZ         0.07590   0.13983  -0.40527   0.11458  -0.39461
  15        4YZ         0.00506  -0.02683   0.37278  -0.21592  -0.53362
  16 2   O  1S         -0.00373  -0.00202  -0.05179  -0.09266   0.01139
  17        2S         -0.07735  -0.06940  -0.81262  -1.50780   0.20275
  18        2PX         0.42118  -0.18264  -0.12384  -0.23504   0.02629
  19        2PY        -0.66194   0.21960  -0.08127  -0.16650   0.04247
  20        2PZ        -0.24266  -0.00451  -0.08929   0.02784  -0.15841
  21        3S          0.25336   0.27406   2.59155   4.69458  -0.60528
  22        3PX        -0.66631   0.48886   0.76781   1.36527  -0.17355
  23        3PY         1.15402  -0.48348   0.45553   0.89652  -0.11834
  24        3PZ         0.40659   0.04543   0.08329  -0.00399  -0.09790
  25        4XX         0.08273   0.02005  -0.23567  -0.47093   0.12000
  26        4YY        -0.09605   0.07429  -0.21907  -0.32214   0.02766
  27        4ZZ        -0.04822  -0.13615  -0.20248  -0.39676   0.00094
  28        4XY        -0.04757  -0.00964  -0.05475  -0.11717  -0.06588
  29        4XZ        -0.02413  -0.03077  -0.05131   0.06305   0.46204
  30        4YZ        -0.03272  -0.01997   0.21732  -0.08125   0.16603
  31 3   H  1S          0.14104   0.09055  -0.00650   0.02330  -0.02714
  32        2S          0.70275  -0.16956  -0.13174  -0.17845   0.00171
  33 4   N  1S         -0.02771  -0.10382  -0.02446   0.00821  -0.01882
  34        2S         -0.30026  -1.48914  -0.26234   0.06183  -0.22238
  35        2PX         0.08708   0.12103  -0.01299  -0.08911   0.03110
  36        2PY         0.11239  -0.22609  -0.06606  -0.03578   0.00241
  37        2PZ        -0.05769  -0.09123   0.05106   0.01419   0.01326
  38        3S          0.41260   4.82353   0.91633  -0.10231   0.67131
  39        3PX         0.01057  -0.89435  -0.12567   0.12878  -0.08172
  40        3PY        -0.10453   1.00513   0.06680   0.02870  -0.01040
  41        3PZ         0.25336   0.48005   0.18225  -0.20792   0.15510
  42        4XX        -0.11762  -0.34737   0.04603   0.08219  -0.03090
  43        4YY        -0.10397  -0.39859  -0.04832   0.07887  -0.01455
  44        4ZZ         0.01778  -0.07315  -0.13666  -0.10920  -0.05969
  45        4XY         0.02361  -0.03391  -0.07585   0.03482  -0.00942
  46        4XZ        -0.01647  -0.04930   0.50444  -0.28936   0.05807
  47        4YZ         0.06943   0.14802   0.07347  -0.10168  -0.09426
  48 5   H  1S         -0.12799  -0.44632  -0.10413  -0.03741  -0.07580
  49        2S         -0.01382  -0.49806  -0.22633  -0.25723  -0.01661
  50 6   H  1S         -0.15861  -0.26070  -0.20317   0.12214  -0.18218
  51        2S         -0.21754  -0.28073   0.02641   0.12781  -0.14695
                          36        37        38        39        40
                           V         V         V         V         V
     Eigenvalues --     1.98086   2.09113   2.11314   2.13520   2.30055
   1 1   C  1S         -0.01392   0.01985   0.00878   0.01149   0.00313
   2        2S         -0.29854   0.18228   0.11383  -0.14455  -0.00559
   3        2PX        -0.03392   0.24900   0.06843   0.06578  -0.09023
   4        2PY         0.11065   0.02943   0.03811  -0.12506   0.12351
   5        2PZ         0.03395  -0.00684  -0.07337  -0.04217   0.06201
   6        3S          1.24250  -1.13619  -0.61664   0.01086  -0.74033
   7        3PX         0.34543   0.29429  -0.11446   0.68386  -0.56763
   8        3PY         0.14311   1.43600   0.62454  -0.41944   0.57822
   9        3PZ         0.00340   0.25828  -0.04581  -0.10395   0.04600
  10        4XX         0.03709  -0.32898  -0.17444   0.31478  -0.06309
  11        4YY         0.24406   0.11454   0.08549  -0.41618   0.17217
  12        4ZZ        -0.32457   0.30806   0.12510   0.07306  -0.19805
  13        4XY        -0.22926  -0.08074   0.05206  -0.25884   0.02512
  14        4XZ        -0.04568   0.06538  -0.09708  -0.05580  -0.12327
  15        4YZ         0.15409  -0.07274  -0.04772  -0.10770   0.21005
  16 2   O  1S          0.00111  -0.03549  -0.01177  -0.00681  -0.01014
  17        2S          0.28212  -0.31622  -0.12068   0.03594   0.06599
  18        2PX         0.17971   0.11435  -0.00550   0.26687   0.01534
  19        2PY         0.07772   0.19387   0.09127  -0.15908   0.02914
  20        2PZ         0.01920   0.02031  -0.03086  -0.04826   0.01671
  21        3S         -0.50023   1.74327   0.59698   0.21016   0.05829
  22        3PX        -0.28064   0.50168   0.23587  -0.26727   0.08794
  23        3PY        -0.12887  -0.00061  -0.06716   0.36772  -0.11958
  24        3PZ        -0.01382  -0.02897   0.04521   0.08184  -0.03563
  25        4XX         0.18112  -0.13613  -0.02731  -0.54478  -0.13045
  26        4YY         0.41427  -0.18648  -0.35725   0.34392  -0.32170
  27        4ZZ        -0.44839   0.11769   0.30454   0.22525   0.40872
  28        4XY        -0.21767   0.01998   0.10092   0.30431   0.33368
  29        4XZ        -0.12769   0.18332  -0.34131   0.04385   0.07788
  30        4YZ         0.16865  -0.26032   0.66660   0.13072  -0.32242
  31 3   H  1S         -0.43505  -0.31727  -0.14662   0.50375  -0.23728
  32        2S         -0.18022  -0.40067  -0.14656   0.06138  -0.13612
  33 4   N  1S          0.01237   0.00329  -0.01701   0.03505  -0.05039
  34        2S          0.04944   0.16587  -0.03836  -0.16968  -0.62737
  35        2PX         0.11205  -0.08473  -0.05715   0.28358   0.13295
  36        2PY         0.03066   0.16161   0.06960  -0.04391   0.01403
  37        2PZ        -0.01523   0.05070  -0.04278  -0.04496   0.01263
  38        3S         -0.50768   0.02765   0.51806  -0.51737   2.00549
  39        3PX         0.17035  -0.42431  -0.17220  -0.19633  -0.47414
  40        3PY        -0.23119  -0.37886  -0.09785  -0.28408   0.21370
  41        3PZ        -0.01191  -0.21846   0.19002   0.01064   0.34004
  42        4XX         0.41787   0.21077  -0.01042   0.19320   0.31868
  43        4YY        -0.40869  -0.64408  -0.15371  -0.28482   0.01289
  44        4ZZ        -0.02745   0.51335   0.14269   0.11682  -0.49735
  45        4XY         0.17354   0.29091   0.19916  -0.08405   0.23438
  46        4XZ        -0.07854   0.24909  -0.39438  -0.04776  -0.09606
  47        4YZ        -0.25042   0.08096  -0.01507   0.02538  -0.45126
  48 5   H  1S         -0.01069   0.14803  -0.06414   0.24999  -0.49302
  49        2S         -0.02966   0.14241   0.02611   0.09939  -0.03821
  50 6   H  1S          0.04256   0.11290  -0.08938   0.06544  -0.38503
  51        2S         -0.07284   0.11174  -0.00497  -0.11031  -0.11684
                          41        42        43        44        45
                           V         V         V         V         V
     Eigenvalues --     2.43091   2.55806   2.64269   2.72768   2.91800
   1 1   C  1S         -0.04786   0.01870   0.06887   0.05736   0.02246
   2        2S         -0.20915   0.07471  -0.10386   0.02675  -0.12870
   3        2PX        -0.16260   0.05705  -0.29847  -0.02062  -0.21565
   4        2PY         0.09898  -0.03424   0.19673   0.06831   0.12982
   5        2PZ        -0.00350   0.12970   0.07398  -0.06807  -0.16197
   6        3S          1.19585  -0.48808  -0.98901  -0.25870  -1.16612
   7        3PX         0.10797  -0.13005  -0.26634  -0.28403  -0.44635
   8        3PY        -0.30796   0.04340   0.88384  -0.47392   0.71884
   9        3PZ         0.11212   0.31011   0.13620  -0.04291  -0.05908
  10        4XX         0.22800  -0.08339  -0.13745  -0.29005   0.05883
  11        4YY         0.34942   0.11462  -0.12837   0.03215  -0.32197
  12        4ZZ        -0.77323   0.03606   0.42484   0.48091   0.27418
  13        4XY        -0.12793  -0.05912  -0.52669  -0.44050   0.38142
  14        4XZ         0.19062   0.37205  -0.09067   0.13557   0.78934
  15        4YZ        -0.05937  -0.61961  -0.11144   0.04204   0.24981
  16 2   O  1S          0.00820  -0.00456   0.00050   0.00019  -0.01160
  17        2S          0.05836   0.02201   0.24880   0.46601  -0.29778
  18        2PX        -0.12419   0.05508   0.28902   0.30476  -0.15335
  19        2PY        -0.04955   0.01997   0.25563   0.21641  -0.08756
  20        2PZ         0.00288   0.06285   0.03209   0.01233   0.00482
  21        3S         -0.55789   0.11330   0.16674  -0.73281   0.72402
  22        3PX        -0.10301   0.00991   0.08699  -0.30778   0.37779
  23        3PY        -0.08634   0.04377  -0.34637  -0.19711  -0.03152
  24        3PZ        -0.02906  -0.20965  -0.08989   0.07540   0.32981
  25        4XX         0.06831  -0.08781   0.42070   0.02525   0.14154
  26        4YY        -0.36370   0.06871  -0.39464   0.11249  -0.25629
  27        4ZZ         0.28748   0.01985   0.21601   0.07290  -0.06144
  28        4XY         0.14780   0.07277  -0.25093  -0.12574  -0.09746
  29        4XZ        -0.00932  -0.46974  -0.13242   0.20441   0.61631
  30        4YZ         0.07516   0.12499  -0.13211   0.13818   0.47535
  31 3   H  1S         -0.34228   0.07873  -0.06956   0.06768   0.16713
  32        2S          0.02838   0.01264  -0.26213   0.27277  -0.27571
  33 4   N  1S          0.04407  -0.02068  -0.01953  -0.00741  -0.04613
  34        2S          0.19657  -0.09800  -0.35019  -0.14779  -0.17730
  35        2PX         0.08207  -0.01916   0.08619   0.03853  -0.08152
  36        2PY        -0.04141  -0.00033  -0.04777  -0.00640   0.02779
  37        2PZ        -0.02055   0.04429   0.01214  -0.01165   0.00795
  38        3S         -1.11781   0.51475   1.14666   0.36900   1.22159
  39        3PX         0.10811  -0.06502  -0.89662   0.19790  -0.74775
  40        3PY         0.17806   0.16948  -0.05760   0.80823   0.12773
  41        3PZ        -0.44151  -0.18841   0.12792  -0.19430   0.04769
  42        4XX         0.24160   0.04997   0.07326   0.25842   0.44340
  43        4YY        -0.13199   0.14194  -0.13211   0.34335  -0.29801
  44        4ZZ        -0.02572  -0.23920  -0.02943  -0.61361  -0.27773
  45        4XY        -0.22164   0.07035  -0.70639   0.39584  -0.23876
  46        4XZ         0.18854   0.65307  -0.08645  -0.01726   0.08034
  47        4YZ         0.53937  -0.34291  -0.19943   0.54999  -0.21133
  48 5   H  1S          0.18235  -0.22030   0.45481  -0.72537   0.04744
  49        2S         -0.00588  -0.01976  -0.00475  -0.04519   0.06118
  50 6   H  1S          0.64497  -0.20023  -0.28296   0.59041  -0.09587
  51        2S          0.06132   0.09605   0.06004   0.01713   0.05981
                          46        47        48        49        50
                           V         V         V         V         V
     Eigenvalues --     2.94707   3.20335   3.30779   4.13250   4.19166
   1 1   C  1S         -0.03868   0.05253  -0.03152  -0.10905  -0.00417
   2        2S          0.21100   0.09590  -1.25638   0.80839  -0.15606
   3        2PX         0.31652  -0.39710   1.04724   0.10774   0.01695
   4        2PY        -0.13327  -0.13496   0.73241  -0.02361  -0.05691
   5        2PZ        -0.15003  -0.00419   0.06560  -0.02274  -0.01013
   6        3S          1.41334  -0.29811  -1.55523  -0.35645  -2.15401
   7        3PX         0.63400  -0.31529   0.60070  -0.57235   0.90964
   8        3PY        -0.61660  -0.40606   0.44671   0.20689   1.08695
   9        3PZ        -0.29088  -0.05577   0.04754   0.03701   0.11951
  10        4XX         0.07088  -0.83899  -0.62044  -0.32122   0.16962
  11        4YY         0.21621   0.92404   0.15978  -0.47396   0.01847
  12        4ZZ        -0.34917   0.13232   0.39903  -0.42001   0.13677
  13        4XY        -0.67517   0.42805  -0.53598  -0.17240   0.01054
  14        4XZ         0.33334   0.11280  -0.03076  -0.05143  -0.00122
  15        4YZ         0.38846   0.12766  -0.02100   0.00365  -0.01978
  16 2   O  1S          0.01515   0.00566  -0.04590   0.07760  -0.52139
  17        2S          0.30860   0.28646  -0.64988   0.09803  -0.15536
  18        2PX         0.18395  -0.03207   0.25656   0.10592  -0.20960
  19        2PY         0.09400   0.03661   0.19569   0.06994  -0.13755
  20        2PZ         0.01197   0.00689   0.01959  -0.00259  -0.01152
  21        3S         -0.69239  -0.81775   2.77588  -0.79982   5.68995
  22        3PX        -0.37391  -0.57685   1.36568  -0.07231   1.06674
  23        3PY        -0.02848   0.03756   0.99885  -0.14952   0.61059
  24        3PZ         0.25241   0.03479   0.08452  -0.00142   0.04599
  25        4XX        -0.07183  -0.82661   0.66624   0.26812  -1.56373
  26        4YY         0.05274   0.61329   0.13971   0.22199  -1.75417
  27        4ZZ         0.24554   0.16975  -0.65182   0.32397  -1.78122
  28        4XY         0.01332   0.02797   1.19424   0.00931   0.12975
  29        4XZ         0.42510   0.05859   0.10834   0.00730   0.00898
  30        4YZ         0.29289   0.07974   0.08318  -0.02327  -0.00096
  31 3   H  1S         -0.24864  -0.30636  -0.02840   0.07704   0.06317
  32        2S          0.25995   0.40468   0.05770  -0.11815  -0.21165
  33 4   N  1S          0.05276  -0.03842  -0.01976  -0.46580  -0.07014
  34        2S          0.18379   0.00090   0.03903   1.01371   0.19206
  35        2PX         0.12037  -0.13376  -0.05326   0.05275  -0.03473
  36        2PY        -0.04815   0.10469   0.00656  -0.05330  -0.00649
  37        2PZ        -0.02430   0.02651   0.01169  -0.07959  -0.00298
  38        3S         -1.39917   0.46667   0.22959   3.54541   0.69191
  39        3PX         0.88291  -0.40115  -0.08779  -0.25622  -0.14633
  40        3PY        -0.47236   0.16953   0.07983   0.23997  -0.10832
  41        3PZ         0.10148   0.05300  -0.02843   0.30619   0.00991
  42        4XX        -0.75984   0.08413  -0.05813  -1.44379  -0.23320
  43        4YY         0.42878  -0.00166   0.00056  -1.47754  -0.30204
  44        4ZZ         0.47842  -0.17377  -0.06384  -1.54149  -0.15447
  45        4XY         0.15909  -0.65447  -0.19377  -0.01413   0.00306
  46        4XZ         0.18821  -0.11294  -0.03284  -0.01500   0.00323
  47        4YZ        -0.33961   0.03478   0.03640  -0.01030  -0.03330
  48 5   H  1S          0.13572   0.25443   0.06771   0.08735   0.07965
  49        2S         -0.09901  -0.02060  -0.12710  -0.51866  -0.18574
  50 6   H  1S         -0.38322  -0.04150   0.01618   0.10269  -0.00843
  51        2S         -0.01980   0.02244   0.06286  -0.55288  -0.02662
                          51
                           V
     Eigenvalues --     4.54729
   1 1   C  1S         -0.45154
   2        2S          2.85738
   3        2PX         0.15074
   4        2PY         0.21369
   5        2PZ         0.02807
   6        3S          0.80178
   7        3PX         0.33996
   8        3PY         0.43605
   9        3PZ         0.05300
  10        4XX        -2.15538
  11        4YY        -1.85445
  12        4ZZ        -1.62154
  13        4XY        -0.07598
  14        4XZ         0.01798
  15        4YZ        -0.03892
  16 2   O  1S         -0.05188
  17        2S         -0.02812
  18        2PX         0.18856
  19        2PY         0.13882
  20        2PZ         0.01388
  21        3S          0.96229
  22        3PX         0.47112
  23        3PY         0.30822
  24        3PZ         0.02249
  25        4XX         0.08161
  26        4YY        -0.03856
  27        4ZZ        -0.25901
  28        4XY         0.23889
  29        4XZ         0.01780
  30        4YZ         0.02846
  31 3   H  1S          0.18330
  32        2S         -0.52872
  33 4   N  1S          0.10372
  34        2S         -0.30477
  35        2PX        -0.15050
  36        2PY         0.08408
  37        2PZ         0.02957
  38        3S         -0.81358
  39        3PX        -0.09957
  40        3PY        -0.07532
  41        3PZ        -0.05131
  42        4XX         0.63319
  43        4YY         0.36391
  44        4ZZ         0.29711
  45        4XY        -0.19469
  46        4XZ        -0.04377
  47        4YZ         0.02585
  48 5   H  1S          0.00438
  49        2S          0.09586
  50 6   H  1S         -0.00920
  51        2S          0.08765
     Density Matrix:
                           1         2         3         4         5
   1 1   C  1S          2.05903
   2        2S         -0.10755   0.33665
   3        2PX         0.00702  -0.01800   0.37836
   4        2PY        -0.01001   0.00885   0.02305   0.41843
   5        2PZ        -0.00367   0.00303   0.00113   0.02108   0.21594
   6        3S         -0.11039   0.20409   0.01779   0.11829   0.02589
   7        3PX        -0.01593   0.02705   0.06271   0.01605   0.00471
   8        3PY        -0.03078   0.05549  -0.00182   0.11530  -0.01211
   9        3PZ        -0.00653   0.01137   0.01110  -0.01162   0.12636
  10        4XX        -0.00614   0.00824   0.00612  -0.02470  -0.00378
  11        4YY        -0.00928   0.01179  -0.00135   0.03145   0.00590
  12        4ZZ         0.00321  -0.01706   0.00378   0.00375  -0.00199
  13        4XY        -0.00201   0.00537  -0.03182  -0.01076   0.00236
  14        4XZ        -0.00011   0.00053  -0.00375   0.00126  -0.01532
  15        4YZ        -0.00174   0.00414  -0.00008   0.00737  -0.01236
  16 2   O  1S          0.01178  -0.01416   0.03752   0.02855   0.00304
  17        2S         -0.02480   0.02864  -0.08466  -0.06694  -0.00700
  18        2PX        -0.08291   0.18887  -0.22157  -0.21551  -0.00762
  19        2PY        -0.05106   0.12500  -0.21363  -0.07471  -0.04304
  20        2PZ        -0.00276   0.00239  -0.01552  -0.04181   0.30271
  21        3S          0.00557  -0.04777   0.02350   0.00937  -0.00748
  22        3PX        -0.04542   0.09875  -0.12540  -0.10596  -0.00255
  23        3PY        -0.02282   0.05747  -0.10691  -0.06329  -0.03348
  24        3PZ         0.00018  -0.00334  -0.00992  -0.03069   0.21528
  25        4XX        -0.00518   0.01110  -0.01070  -0.01994  -0.00087
  26        4YY        -0.00121   0.00272  -0.01014   0.00440  -0.00271
  27        4ZZ         0.00128  -0.00232   0.00328   0.00161   0.00298
  28        4XY        -0.00586   0.01332  -0.01698  -0.00740  -0.00266
  29        4XZ        -0.00058   0.00104  -0.00159  -0.00336   0.02074
  30        4YZ        -0.00014   0.00002  -0.00159  -0.00119   0.01426
  31 3   H  1S         -0.06451   0.12743  -0.01310   0.25404   0.03109
  32        2S         -0.01137   0.02644  -0.01659   0.19208   0.02355
  33 4   N  1S          0.00856  -0.01524  -0.04235   0.02368   0.01236
  34        2S         -0.01744   0.03144   0.08674  -0.04645  -0.02829
  35        2PX         0.06368  -0.13939  -0.25049   0.12227   0.02587
  36        2PY        -0.02914   0.06402   0.12605  -0.05828   0.00755
  37        2PZ        -0.00807   0.01630   0.03666  -0.02388   0.07905
  38        3S          0.00065  -0.00326   0.09643  -0.09337  -0.04599
  39        3PX         0.03215  -0.07136  -0.15766   0.08352   0.01496
  40        3PY        -0.00981   0.02538   0.08560  -0.07026   0.00996
  41        3PZ        -0.00732   0.01546   0.03605  -0.03084   0.03912
  42        4XX        -0.00573   0.00974   0.00446  -0.00770  -0.00316
  43        4YY         0.00005  -0.00100   0.00016   0.00539  -0.00022
  44        4ZZ         0.00089  -0.00188  -0.00350   0.00227   0.00463
  45        4XY         0.00591  -0.01155  -0.01476   0.00232   0.00168
  46        4XZ         0.00314  -0.00655  -0.01062   0.00576  -0.00437
  47        4YZ        -0.00188   0.00435   0.00757  -0.00313   0.00286
  48 5   H  1S          0.01026  -0.02470  -0.03848   0.00712   0.00797
  49        2S          0.00915  -0.01898  -0.04407   0.01027   0.00826
  50 6   H  1S          0.00903  -0.02295  -0.03450   0.02045   0.01666
  51        2S          0.00734  -0.01575  -0.03173   0.03368   0.00851
                           6         7         8         9        10
   6        3S          0.17387
   7        3PX         0.02951   0.02801
   8        3PY         0.05760   0.00452   0.04465
   9        3PZ         0.01467   0.00364  -0.01222   0.07702
  10        4XX        -0.00758  -0.00507  -0.00243   0.00051   0.00598
  11        4YY         0.02084   0.00754   0.00749   0.00106  -0.00538
  12        4ZZ        -0.00833  -0.00082  -0.00180  -0.00178  -0.00083
  13        4XY        -0.00172  -0.00085  -0.00231   0.00113  -0.00112
  14        4XZ        -0.00238   0.00084   0.00285  -0.01022  -0.00004
  15        4YZ         0.00393   0.00110   0.00340  -0.00769  -0.00065
  16 2   O  1S          0.01799  -0.00298  -0.00143   0.00035  -0.00620
  17        2S         -0.04519   0.00652   0.00287  -0.00089   0.01177
  18        2PX         0.08439   0.02227  -0.05075   0.00028  -0.01877
  19        2PY         0.00313  -0.11001   0.03193  -0.01507   0.04529
  20        2PZ         0.02049  -0.01697  -0.04045   0.18805   0.00360
  21        3S         -0.07463   0.02946   0.01292  -0.00426   0.00776
  22        3PX         0.05090   0.02241  -0.02923  -0.00094  -0.01689
  23        3PY        -0.01907  -0.07446   0.01578  -0.01120   0.03405
  24        3PZ         0.01295  -0.01307  -0.03092   0.13432   0.00220
  25        4XX         0.00293   0.00181  -0.00489   0.00025  -0.00061
  26        4YY         0.00034  -0.00521   0.00334  -0.00181   0.00155
  27        4ZZ        -0.00049   0.00000  -0.00014   0.00168   0.00002
  28        4XY         0.00435  -0.00359   0.00097  -0.00112   0.00124
  29        4XZ         0.00192  -0.00045  -0.00285   0.01274  -0.00003
  30        4YZ         0.00099  -0.00090  -0.00164   0.00873   0.00011
  31 3   H  1S          0.15525   0.02835   0.08268   0.00495  -0.02004
  32        2S          0.08251   0.02561   0.04616  -0.00025  -0.02431
  33 4   N  1S          0.00988   0.00951   0.00361   0.00554  -0.00856
  34        2S         -0.01384  -0.01723  -0.00887  -0.01262   0.01597
  35        2PX        -0.08773  -0.03708   0.00996  -0.00623  -0.01888
  36        2PY        -0.01822   0.03519   0.00301   0.02341   0.02135
  37        2PZ        -0.01699   0.01652   0.00941   0.03310   0.00721
  38        3S         -0.05930  -0.04709  -0.02001  -0.01734   0.03084
  39        3PX        -0.03682  -0.01719   0.00750  -0.00516  -0.01570
  40        3PY        -0.03508   0.01595  -0.00613   0.01919   0.01915
  41        3PZ        -0.02204   0.01434   0.00894   0.01390   0.00890
  42        4XX         0.00350   0.00132  -0.00092  -0.00038   0.00090
  43        4YY        -0.00102   0.00000   0.00120  -0.00036  -0.00008
  44        4ZZ         0.00003  -0.00044   0.00065   0.00110  -0.00061
  45        4XY        -0.00987  -0.00265  -0.00125   0.00019  -0.00057
  46        4XZ        -0.00427  -0.00207   0.00088  -0.00359  -0.00076
  47        4YZ         0.00008   0.00321   0.00017   0.00305   0.00099
  48 5   H  1S         -0.05201  -0.00580   0.00055   0.00417   0.00484
  49        2S         -0.02445   0.00235  -0.00058   0.00327  -0.00270
  50 6   H  1S         -0.00856  -0.01636   0.00388  -0.00490  -0.00347
  51        2S          0.00483  -0.00278   0.00636  -0.00408  -0.00709
                          11        12        13        14        15
  11        4YY         0.00652
  12        4ZZ        -0.00021   0.00102
  13        4XY         0.00087  -0.00073   0.00452
  14        4XZ        -0.00020   0.00000   0.00053   0.00328
  15        4YZ         0.00090   0.00000  -0.00008   0.00090   0.00100
  16 2   O  1S          0.00096   0.00351  -0.01047  -0.00129   0.00001
  17        2S         -0.00394  -0.00772   0.02127   0.00262  -0.00029
  18        2PX         0.02011  -0.01076   0.03559   0.00485   0.00221
  19        2PY        -0.04333  -0.00797  -0.00264   0.00205  -0.00296
  20        2PZ        -0.00114  -0.00295   0.00129  -0.03567  -0.01908
  21        3S         -0.00103  -0.00322   0.01447   0.00404   0.00045
  22        3PX         0.01697  -0.00534   0.02260   0.00369   0.00201
  23        3PY        -0.03403  -0.00396  -0.00575   0.00163  -0.00270
  24        3PZ        -0.00059  -0.00178   0.00056  -0.02712  -0.01356
  25        4XX         0.00075  -0.00075   0.00220   0.00022   0.00002
  26        4YY        -0.00141  -0.00018  -0.00035   0.00017   0.00004
  27        4ZZ         0.00001   0.00011  -0.00045  -0.00035  -0.00019
  28        4XY        -0.00090  -0.00080   0.00118   0.00037   0.00006
  29        4XZ         0.00021  -0.00026   0.00034  -0.00216  -0.00127
  30        4YZ         0.00000  -0.00014   0.00012  -0.00157  -0.00089
  31 3   H  1S          0.03135  -0.00404   0.00007  -0.00032   0.00590
  32        2S          0.02886   0.00051   0.00256  -0.00089   0.00459
  33 4   N  1S          0.00330   0.00120   0.00720   0.00351  -0.00031
  34        2S         -0.00594  -0.00265  -0.01491  -0.00837   0.00097
  35        2PX         0.01086   0.00522   0.02409   0.00405   0.00033
  36        2PY        -0.01830  -0.00420   0.00364   0.00368  -0.00227
  37        2PZ        -0.00617  -0.00347  -0.00006   0.02736  -0.00660
  38        3S         -0.02229  -0.00139  -0.02240  -0.01279  -0.00078
  39        3PX         0.01165   0.00278   0.01585   0.00168   0.00111
  40        3PY        -0.01853  -0.00248   0.00120   0.00415  -0.00320
  41        3PZ        -0.00870  -0.00284   0.00027   0.02526  -0.00435
  42        4XX        -0.00027  -0.00050   0.00010  -0.00079   0.00020
  43        4YY         0.00036   0.00002   0.00011  -0.00023   0.00014
  44        4ZZ         0.00055  -0.00001  -0.00010   0.00137  -0.00028
  45        4XY        -0.00013   0.00039   0.00173   0.00006  -0.00014
  46        4XZ         0.00041   0.00031   0.00077   0.00044   0.00034
  47        4YZ        -0.00099  -0.00025   0.00058   0.00016  -0.00026
  48 5   H  1S         -0.00445  -0.00041   0.00902   0.00169  -0.00071
  49        2S          0.00107   0.00025   0.00920   0.00220  -0.00017
  50 6   H  1S          0.00491   0.00018  -0.00423   0.00803  -0.00087
  51        2S          0.00674   0.00069   0.00045   0.00460   0.00031
                          16        17        18        19        20
  16 2   O  1S          2.08184
  17        2S         -0.18793   0.51338
  18        2PX         0.03786  -0.08333   0.65407
  19        2PY         0.02647  -0.05066  -0.10689   0.73784
  20        2PZ         0.00374  -0.00631  -0.02734   0.03249   0.53275
  21        3S         -0.23751   0.54869  -0.22628  -0.18868  -0.03919
  22        3PX         0.02716  -0.06451   0.41159  -0.12843  -0.02890
  23        3PY         0.01879  -0.03842  -0.12215   0.50125   0.01705
  24        3PZ         0.00220  -0.00367  -0.02303   0.01787   0.38973
  25        4XX        -0.00835   0.00196   0.03894  -0.00892  -0.00104
  26        4YY        -0.00840   0.00213  -0.01320   0.03083  -0.00060
  27        4ZZ        -0.00863   0.00081  -0.00645  -0.00182   0.00482
  28        4XY         0.00056  -0.00053   0.01527   0.02726  -0.00112
  29        4XZ         0.00008  -0.00014   0.00221  -0.00118   0.03441
  30        4YZ         0.00021  -0.00017  -0.00126   0.00190   0.02437
  31 3   H  1S          0.00805  -0.02229   0.00895  -0.08187  -0.00671
  32        2S          0.00411  -0.01231   0.02767  -0.17280  -0.00991
  33 4   N  1S         -0.00236   0.00376   0.02440  -0.01572  -0.01111
  34        2S          0.00508  -0.00835  -0.04807   0.02481   0.02721
  35        2PX        -0.00992   0.02077   0.09132  -0.04543  -0.00533
  36        2PY        -0.00506   0.00267  -0.01110   0.02124  -0.01682
  37        2PZ        -0.00222   0.00515  -0.00187   0.02008  -0.09351
  38        3S          0.00487  -0.00495  -0.15965   0.16853   0.05872
  39        3PX        -0.00388   0.00769   0.09058  -0.06285  -0.00396
  40        3PY        -0.00480   0.00595  -0.03163   0.05508  -0.00886
  41        3PZ        -0.00195   0.00391  -0.00488   0.03739  -0.11705
  42        4XX        -0.00076   0.00118   0.00841   0.00013   0.00221
  43        4YY        -0.00026   0.00051  -0.00109  -0.00441   0.00012
  44        4ZZ        -0.00001   0.00024   0.00035  -0.00066  -0.00416
  45        4XY        -0.00061   0.00104   0.00674  -0.00247   0.00154
  46        4XZ        -0.00030   0.00066   0.00252  -0.00061  -0.00722
  47        4YZ        -0.00040   0.00025   0.00067  -0.00048   0.00153
  48 5   H  1S         -0.00557   0.00899   0.03820  -0.00908  -0.00434
  49        2S         -0.00332   0.00441   0.05775  -0.03573  -0.00938
  50 6   H  1S          0.00207  -0.00007  -0.00805   0.00378  -0.03391
  51        2S         -0.00167   0.00520   0.00877  -0.02840  -0.02510
                          21        22        23        24        25
  21        3S          0.66316
  22        3PX        -0.13693   0.26746
  23        3PY        -0.11781  -0.11853   0.34867
  24        3PZ        -0.02721  -0.02295   0.00845   0.28644
  25        4XX        -0.00616   0.02400  -0.00852  -0.00086   0.00259
  26        4YY        -0.00190  -0.01075   0.02090  -0.00055  -0.00091
  27        4ZZ         0.00227  -0.00409  -0.00077   0.00358  -0.00031
  28        4XY        -0.01045   0.00704   0.01665  -0.00118   0.00081
  29        4XZ        -0.00242   0.00088  -0.00140   0.02501   0.00018
  30        4YZ        -0.00174  -0.00130   0.00098   0.01776  -0.00007
  31 3   H  1S         -0.00841   0.02155  -0.08058  -0.00608  -0.00367
  32        2S          0.01442   0.03957  -0.13681  -0.00558  -0.00130
  33 4   N  1S          0.00930   0.01983  -0.01302  -0.01132   0.00040
  34        2S         -0.02061  -0.03966   0.02128   0.02760  -0.00090
  35        2PX         0.02800   0.08593  -0.05525  -0.00453   0.00069
  36        2PY         0.06376   0.00618   0.03293  -0.02054  -0.00048
  37        2PZ         0.02469   0.00046   0.02620  -0.09402   0.00017
  38        3S         -0.02720  -0.12475   0.13079   0.05377  -0.00668
  39        3PX         0.00776   0.07642  -0.06216  -0.00225   0.00238
  40        3PY         0.04409  -0.01575   0.05511  -0.01388  -0.00126
  41        3PZ         0.02421  -0.00172   0.03862  -0.10719  -0.00005
  42        4XX        -0.00059   0.00476  -0.00024   0.00219   0.00066
  43        4YY         0.00276   0.00050  -0.00335   0.00032  -0.00017
  44        4ZZ        -0.00094  -0.00006  -0.00062  -0.00415   0.00001
  45        4XY         0.00234   0.00631  -0.00266   0.00115   0.00015
  46        4XZ         0.00080   0.00264  -0.00138  -0.00504  -0.00005
  47        4YZ         0.00467   0.00151   0.00080   0.00044   0.00002
  48 5   H  1S          0.03181   0.03959  -0.00859  -0.00529   0.00091
  49        2S          0.01718   0.04873  -0.02902  -0.00880   0.00231
  50 6   H  1S         -0.01962  -0.01001  -0.00105  -0.02940  -0.00040
  51        2S         -0.00010   0.00677  -0.02411  -0.02057   0.00014
                          26        27        28        29        30
  26        4YY         0.00164
  27        4ZZ         0.00006   0.00018
  28        4XY         0.00095  -0.00029   0.00166
  29        4XZ        -0.00022   0.00029  -0.00008   0.00228
  30        4YZ         0.00001   0.00022  -0.00003   0.00158   0.00112
  31 3   H  1S          0.00007   0.00007  -0.00078   0.00019   0.00013
  32        2S         -0.00409   0.00035  -0.00487   0.00019  -0.00012
  33 4   N  1S         -0.00051  -0.00088   0.00046  -0.00018  -0.00026
  34        2S          0.00105   0.00165  -0.00109   0.00054   0.00070
  35        2PX        -0.00005  -0.00215   0.00132   0.00061   0.00069
  36        2PY        -0.00636  -0.00309   0.00001  -0.00079  -0.00124
  37        2PZ        -0.00010   0.00020   0.00097  -0.00263  -0.00290
  38        3S          0.00756   0.00260   0.00078   0.00096   0.00191
  39        3PX        -0.00146  -0.00143   0.00056   0.00054   0.00036
  40        3PY        -0.00269  -0.00179   0.00067  -0.00041  -0.00064
  41        3PZ         0.00021  -0.00055   0.00156  -0.00489  -0.00429
  42        4XX        -0.00033  -0.00013   0.00026   0.00009   0.00002
  43        4YY        -0.00019  -0.00004  -0.00020  -0.00001   0.00000
  44        4ZZ         0.00023   0.00014   0.00002  -0.00008  -0.00009
  45        4XY        -0.00020  -0.00020   0.00006   0.00014   0.00011
  46        4XZ         0.00014  -0.00012   0.00008  -0.00047  -0.00030
  47        4YZ        -0.00054  -0.00022  -0.00003   0.00015   0.00004
  48 5   H  1S         -0.00284  -0.00192   0.00054   0.00010  -0.00011
  49        2S         -0.00303  -0.00154   0.00026   0.00001  -0.00030
  50 6   H  1S          0.00326   0.00166   0.00014  -0.00126  -0.00087
  51        2S          0.00077   0.00062  -0.00053  -0.00097  -0.00075
                          31        32        33        34        35
  31 3   H  1S          0.21743
  32        2S          0.15539   0.14156
  33 4   N  1S          0.01293   0.01180   2.06599
  34        2S         -0.02351  -0.01919  -0.13166   0.38415
  35        2PX         0.04995   0.09155  -0.00241   0.00533   0.43761
  36        2PY        -0.04972  -0.08115   0.01666  -0.04665   0.00458
  37        2PZ        -0.01930  -0.03996   0.02917  -0.07987  -0.00620
  38        3S         -0.08915  -0.08354  -0.21789   0.45092  -0.03199
  39        3PX         0.04915   0.07528  -0.00108   0.00597   0.26911
  40        3PY        -0.06552  -0.08327   0.00882  -0.03306  -0.01071
  41        3PZ        -0.02929  -0.04868   0.02717  -0.08143  -0.01035
  42        4XX        -0.00128  -0.00251  -0.01107   0.00905  -0.00579
  43        4YY         0.00306   0.00327  -0.01159   0.01015   0.01150
  44        4ZZ         0.00180   0.00190  -0.00541  -0.00308   0.00060
  45        4XY        -0.00172   0.00230  -0.00166   0.00340   0.03151
  46        4XZ         0.00188   0.00394  -0.00152   0.00347   0.01800
  47        4YZ        -0.00248  -0.00484   0.00611  -0.01346  -0.00183
  48 5   H  1S         -0.00881  -0.00049  -0.04388   0.08806   0.20022
  49        2S          0.00409   0.01256   0.00690  -0.01482   0.12331
  50 6   H  1S          0.01522   0.02355  -0.04699   0.09740   0.03415
  51        2S          0.02579   0.03084   0.00254  -0.00337   0.02475
                          36        37        38        39        40
  36        2PY         0.48785
  37        2PZ         0.07193   0.59123
  38        3S         -0.05461  -0.13550   0.58465
  39        3PX        -0.02031  -0.02499  -0.02835   0.17093
  40        3PY         0.32796   0.09728  -0.02565  -0.02787   0.23091
  41        3PZ         0.10513   0.49062  -0.12437  -0.02710   0.11216
  42        4XX         0.01097  -0.01550   0.01068  -0.00296   0.00575
  43        4YY         0.00666  -0.00492   0.01035   0.00713   0.00326
  44        4ZZ        -0.01608   0.03022  -0.00609   0.00019  -0.00820
  45        4XY         0.01057  -0.00286   0.00241   0.01876   0.00636
  46        4XZ        -0.00345  -0.00360   0.00294   0.01122  -0.00307
  47        4YZ         0.03436   0.00466  -0.01580  -0.00260   0.02292
  48 5   H  1S          0.19405   0.01770   0.08385   0.11444   0.12470
  49        2S          0.10767   0.01320  -0.03661   0.07343   0.06636
  50 6   H  1S         -0.19469   0.18425   0.09453   0.02314  -0.11321
  51        2S         -0.10693   0.08093  -0.02038   0.01907  -0.06736
                          41        42        43        44        45
  41        3PZ         0.41570
  42        4XX        -0.01188   0.00127
  43        4YY        -0.00400   0.00039   0.00081
  44        4ZZ         0.02313  -0.00133  -0.00050   0.00239
  45        4XY        -0.00182   0.00000   0.00104  -0.00053   0.00263
  46        4XZ        -0.00294  -0.00020   0.00052  -0.00002   0.00125
  47        4YZ         0.00713   0.00060   0.00014  -0.00115   0.00050
  48 5   H  1S          0.02708   0.00447   0.01064  -0.00661   0.01957
  49        2S          0.01908   0.00123   0.00451  -0.00337   0.01112
  50 6   H  1S          0.12927  -0.00895  -0.00087   0.01837  -0.00220
  51        2S          0.05565  -0.00560  -0.00148   0.00907  -0.00142
                          46        47        48        49        50
  46        4XZ         0.00092
  47        4YZ        -0.00045   0.00274
  48 5   H  1S          0.00753   0.00986   0.19645
  49        2S          0.00418   0.00721   0.09747   0.06058
  50 6   H  1S          0.00272  -0.01702  -0.03490  -0.03531   0.18949
  51        2S          0.00146  -0.00769  -0.03275  -0.01578   0.08045
                          51
  51        2S          0.04292
    Full Mulliken population analysis:
                           1         2         3         4         5
   1 1   C  1S          2.05903
   2        2S         -0.02356   0.33665
   3        2PX         0.00000   0.00000   0.37836
   4        2PY         0.00000   0.00000   0.00000   0.41843
   5        2PZ         0.00000   0.00000   0.00000   0.00000   0.21594
   6        3S         -0.02034   0.16577   0.00000   0.00000   0.00000
   7        3PX         0.00000   0.00000   0.03573   0.00000   0.00000
   8        3PY         0.00000   0.00000   0.00000   0.06569   0.00000
   9        3PZ         0.00000   0.00000   0.00000   0.00000   0.07199
  10        4XX        -0.00049   0.00585   0.00000   0.00000   0.00000
  11        4YY        -0.00073   0.00837   0.00000   0.00000   0.00000
  12        4ZZ         0.00025  -0.01212   0.00000   0.00000   0.00000
  13        4XY         0.00000   0.00000   0.00000   0.00000   0.00000
  14        4XZ         0.00000   0.00000   0.00000   0.00000   0.00000
  15        4YZ         0.00000   0.00000   0.00000   0.00000   0.00000
  16 2   O  1S          0.00000  -0.00029  -0.00132  -0.00069  -0.00001
  17        2S         -0.00019   0.00482   0.01871   0.01014   0.00009
  18        2PX        -0.00127   0.03115   0.03499   0.03627   0.00011
  19        2PY        -0.00054   0.01414   0.03595   0.00208   0.00043
  20        2PZ         0.00000   0.00002   0.00022   0.00041   0.02624
  21        3S          0.00036  -0.01764  -0.00647  -0.00177   0.00012
  22        3PX        -0.00554   0.04673   0.01228   0.02738   0.00006
  23        3PY        -0.00191   0.01865   0.02762  -0.00644   0.00051
  24        3PZ         0.00000  -0.00009   0.00022   0.00047   0.05976
  25        4XX        -0.00034   0.00357   0.00244   0.00638   0.00002
  26        4YY        -0.00004   0.00060   0.00306  -0.00019   0.00005
  27        4ZZ         0.00000  -0.00031  -0.00051  -0.00017   0.00001
  28        4XY        -0.00044   0.00297   0.00386   0.00034   0.00006
  29        4XZ         0.00000   0.00002   0.00003   0.00007   0.00424
  30        4YZ         0.00000   0.00000   0.00003   0.00000   0.00200
  31 3   H  1S         -0.00212   0.03496   0.00038   0.09266   0.00170
  32        2S         -0.00105   0.01260   0.00034   0.05033   0.00093
  33 4   N  1S          0.00000  -0.00012  -0.00076  -0.00020  -0.00002
  34        2S         -0.00006   0.00331   0.01374   0.00344   0.00050
  35        2PX        -0.00056   0.01905   0.04323   0.01291   0.00065
  36        2PY        -0.00012   0.00409   0.01331  -0.00024  -0.00009
  37        2PZ        -0.00001   0.00025   0.00092   0.00028   0.00401
  38        3S          0.00003  -0.00092   0.02209   0.00999   0.00116
  39        3PX        -0.00325   0.03254   0.02965   0.01514   0.00064
  40        3PY        -0.00046   0.00541   0.01551  -0.00811  -0.00020
  41        3PZ        -0.00008   0.00078   0.00155   0.00062   0.00764
  42        4XX        -0.00013   0.00222   0.00113   0.00141   0.00014
  43        4YY         0.00000  -0.00010   0.00002  -0.00005   0.00000
  44        4ZZ         0.00000  -0.00012  -0.00035  -0.00010   0.00002
  45        4XY        -0.00011   0.00153   0.00272  -0.00002   0.00004
  46        4XZ        -0.00001   0.00021   0.00046   0.00015   0.00050
  47        4YZ         0.00000   0.00006   0.00020   0.00000   0.00015
  48 5   H  1S          0.00000  -0.00028  -0.00091   0.00001  -0.00001
  49        2S          0.00016  -0.00243  -0.00562   0.00007  -0.00004
  50 6   H  1S          0.00000  -0.00026  -0.00058  -0.00031   0.00012
  51        2S          0.00013  -0.00201  -0.00287  -0.00277   0.00032
                           6         7         8         9        10
   6        3S          0.17387
   7        3PX         0.00000   0.02801
   8        3PY         0.00000   0.00000   0.04465
[...]
  50 6   H  1S          0.00014   0.00000   0.00011   0.00000   0.00000
  51        2S          0.00133   0.00010  -0.00008   0.00000   0.00000
                          16        17        18        19        20
  16 2   O  1S          2.08130
  17        2S         -0.04321   0.50266
  18        2PX         0.00000   0.00000   0.63511
  19        2PY         0.00000   0.00000   0.00000   0.73769
  20        2PZ         0.00000   0.00000   0.00000   0.00000   0.56810
  21        3S         -0.03889   0.40967   0.00000   0.00000   0.00000
  22        3PX         0.00000   0.00000   0.19747   0.00000   0.00000
  23        3PY         0.00000   0.00000   0.00000   0.25585   0.00000
  24        3PZ         0.00000   0.00000   0.00000   0.00000   0.21069
  25        4XX        -0.00027   0.00063   0.00000   0.00000   0.00000
  26        4YY        -0.00029   0.00118   0.00000   0.00000   0.00000
  27        4ZZ        -0.00029   0.00053   0.00000   0.00000   0.00000
  28        4XY         0.00000   0.00000   0.00000   0.00000   0.00000
  29        4XZ         0.00000   0.00000   0.00000   0.00000   0.00000
  30        4YZ         0.00000   0.00000   0.00000   0.00000   0.00000
  31 3   H  1S          0.00000  -0.00007   0.00003  -0.00046   0.00000
  32        2S          0.00004  -0.00111   0.00095  -0.01097   0.00000
  33 4   N  1S          0.00000   0.00000   0.00000   0.00000   0.00000
  34        2S          0.00000   0.00000  -0.00005   0.00000   0.00000
  35        2PX         0.00000  -0.00002  -0.00023   0.00001   0.00000
  36        2PY         0.00000   0.00000   0.00000   0.00000   0.00000
  37        2PZ         0.00000   0.00000   0.00000   0.00000  -0.00003
  38        3S          0.00001  -0.00004  -0.00544   0.00030   0.00000
  39        3PX         0.00004  -0.00058  -0.00690   0.00030   0.00000
  40        3PY         0.00000  -0.00006   0.00012   0.00036   0.00000
  41        3PZ         0.00000   0.00000   0.00000   0.00000  -0.00282
  42        4XX         0.00000   0.00001   0.00009   0.00000   0.00000
  43        4YY         0.00000   0.00000   0.00000   0.00000   0.00000
  44        4ZZ         0.00000   0.00000   0.00000   0.00000   0.00000
  45        4XY         0.00000   0.00000   0.00000   0.00000   0.00000
  46        4XZ         0.00000   0.00000   0.00000   0.00000   0.00001
  47        4YZ         0.00000   0.00000   0.00000   0.00000   0.00000
  48 5   H  1S          0.00000   0.00000   0.00000   0.00000   0.00000
  49        2S          0.00000   0.00001   0.00030  -0.00004   0.00000
  50 6   H  1S          0.00000   0.00000   0.00000   0.00000   0.00000
  51        2S         -0.00001   0.00016   0.00004   0.00053   0.00000
                          21        22        23        24        25
  21        3S          0.63924
  22        3PX         0.00000   0.25126
  23        3PY         0.00000   0.00000   0.36064
  24        3PZ         0.00000   0.00000   0.00000   0.31283
  25        4XX        -0.00558   0.00000   0.00000   0.00000   0.00289
  26        4YY         0.00002   0.00000   0.00000   0.00000  -0.00034
  27        4ZZ         0.00246   0.00000   0.00000   0.00000  -0.00016
  28        4XY         0.00000   0.00000   0.00000   0.00000   0.00000
  29        4XZ         0.00000   0.00000   0.00000   0.00000   0.00000
  30        4YZ         0.00000   0.00000   0.00000   0.00000   0.00000
  31 3   H  1S          0.00006   0.00163  -0.01023   0.00000  -0.00005
  32        2S          0.00604   0.00712  -0.04367   0.00000  -0.00025
  33 4   N  1S          0.00000   0.00014  -0.00001   0.00000   0.00000
  34        2S         -0.00004  -0.00276   0.00012   0.00000  -0.00001
  35        2PX        -0.00050  -0.00664   0.00025   0.00000  -0.00001
  36        2PY        -0.00001   0.00001   0.00024   0.00000   0.00000
  37        2PZ         0.00000   0.00000   0.00000  -0.00206   0.00000
  38        3S         -0.00091  -0.02861   0.00170   0.00000  -0.00056
  39        3PX        -0.00137  -0.02380   0.00132   0.00000  -0.00041
  40        3PY        -0.00018   0.00036   0.00290   0.00000  -0.00001
  41        3PZ         0.00000   0.00000   0.00000  -0.01814   0.00000
  42        4XX        -0.00001   0.00111  -0.00001   0.00000   0.00004
  43        4YY         0.00003  -0.00006   0.00000   0.00000   0.00000
  44        4ZZ         0.00001   0.00003   0.00000   0.00000   0.00000
  45        4XY         0.00000   0.00003  -0.00001   0.00000   0.00000
  46        4XZ         0.00000   0.00000   0.00000   0.00017   0.00000
  47        4YZ         0.00000   0.00000   0.00000   0.00000   0.00000
  48 5   H  1S          0.00000   0.00013  -0.00001   0.00000   0.00000
  49        2S         -0.00013   0.00244  -0.00036   0.00000   0.00005
  50 6   H  1S          0.00000  -0.00034   0.00007   0.00000   0.00000
  51        2S          0.00185   0.00113   0.00290   0.00000  -0.00007
                          26        27        28        29        30
  26        4YY         0.00143
  27        4ZZ         0.00004   0.00015
  28        4XY         0.00000   0.00000   0.00180
  29        4XZ         0.00000   0.00000   0.00000   0.00251
  30        4YZ         0.00000   0.00000   0.00000   0.00000   0.00095
  31 3   H  1S         -0.00001   0.00000  -0.00002   0.00000   0.00000
  32        2S         -0.00071  -0.00002  -0.00033   0.00000   0.00000
  33 4   N  1S          0.00000   0.00000   0.00000   0.00000   0.00000
  34        2S          0.00000   0.00000   0.00000   0.00000   0.00000
  35        2PX         0.00000   0.00000   0.00000   0.00000   0.00000
  36        2PY         0.00000   0.00000   0.00000   0.00000   0.00000
  37        2PZ         0.00000   0.00000   0.00000  -0.00001   0.00000
  38        3S          0.00024   0.00006   0.00001   0.00000   0.00000
  39        3PX         0.00014   0.00013   0.00000   0.00000   0.00000
  40        3PY         0.00000   0.00000  -0.00006   0.00000   0.00000
  41        3PZ         0.00000   0.00000   0.00000  -0.00028  -0.00001
  42        4XX         0.00000   0.00000   0.00000   0.00000   0.00000
  43        4YY         0.00000   0.00000   0.00000   0.00000   0.00000
  44        4ZZ         0.00000   0.00000   0.00000   0.00000   0.00000
  45        4XY         0.00000   0.00000   0.00000   0.00000   0.00000
  46        4XZ         0.00000   0.00000   0.00000   0.00001   0.00000
  47        4YZ         0.00000   0.00000   0.00000   0.00000   0.00000
  48 5   H  1S          0.00000   0.00000   0.00000   0.00000   0.00000
  49        2S         -0.00001   0.00000   0.00000   0.00000   0.00000
  50 6   H  1S          0.00000   0.00000   0.00000   0.00000   0.00000
  51        2S         -0.00003   0.00000   0.00004   0.00000   0.00000
                          31        32        33        34        35
  31 3   H  1S          0.22032
  32        2S          0.10901   0.15792
  33 4   N  1S          0.00000   0.00033   2.06298
  34        2S         -0.00019  -0.00451  -0.02739   0.36203
  35        2PX        -0.00028  -0.00480   0.00000   0.00000   0.46563
  36        2PY        -0.00032  -0.00389   0.00000   0.00000   0.00000
  37        2PZ         0.00000   0.00000   0.00000   0.00000   0.00000
  38        3S         -0.00896  -0.03883  -0.03439   0.31548   0.00000
  39        3PX        -0.00515  -0.01780   0.00000   0.00000   0.14409
  40        3PY        -0.00762  -0.01761   0.00000   0.00000   0.00000
  41        3PZ         0.00000   0.00000   0.00000   0.00000   0.00000
  42        4XX        -0.00003  -0.00035  -0.00068   0.00817   0.00000
  43        4YY         0.00013   0.00105  -0.00077   0.01062   0.00000
  44        4ZZ         0.00000   0.00010  -0.00012  -0.00633   0.00000
  45        4XY         0.00010   0.00009   0.00000   0.00000   0.00000
  46        4XZ         0.00000   0.00000   0.00000   0.00000   0.00000
  47        4YZ         0.00000   0.00000   0.00000   0.00000   0.00000
  48 5   H  1S         -0.00001   0.00044  -0.00199   0.03040   0.06226
  49        2S          0.00017   0.00321   0.00007  -0.00016   0.01556
  50 6   H  1S          0.00000   0.00038  -0.00196   0.03062   0.00108
  51        2S          0.00047   0.00390   0.00018  -0.00096   0.00058
                          36        37        38        39        40
  36        2PY         0.47154
  37        2PZ         0.00000   0.65499
  38        3S          0.00000   0.00000   0.54703
  39        3PX         0.00000   0.00000   0.00000   0.17024
  40        3PY         0.15671   0.00000   0.00000   0.00000   0.19803
  41        3PZ         0.00000   0.29853   0.00000   0.00000   0.00000
  42        4XX         0.00000   0.00000   0.00879   0.00000   0.00000
  43        4YY         0.00000   0.00000   0.00905   0.00000   0.00000
  44        4ZZ         0.00000   0.00000  -0.00733   0.00000   0.00000
  45        4XY         0.00000   0.00000   0.00000   0.00000   0.00000
  46        4XZ         0.00000   0.00000   0.00000   0.00000   0.00000
  47        4YZ         0.00000   0.00000   0.00000   0.00000   0.00000
  48 5   H  1S          0.03031   0.00000   0.04378   0.06009   0.03293
  49        2S          0.00675   0.00000  -0.01311   0.02639   0.01162
  50 6   H  1S          0.09057   0.00000   0.04340   0.00110   0.09437
  51        2S          0.02034   0.00000  -0.02234   0.00122   0.03755
                          41        42        43        44        45
  41        3PZ         0.51008
  42        4XX         0.00000   0.00161
  43        4YY         0.00000  -0.00014   0.00280
  44        4ZZ         0.00000  -0.00012  -0.00015   0.00030
  45        4XY         0.00000   0.00000   0.00000   0.00000   0.00162
  46        4XZ         0.00000   0.00000   0.00000   0.00000   0.00000
  47        4YZ         0.00000   0.00000   0.00000   0.00000   0.00000
  48 5   H  1S          0.00000   0.00514   0.00057  -0.00057   0.00494
  49        2S          0.00000   0.00178  -0.00040  -0.00012   0.00038
  50 6   H  1S          0.00000  -0.00108   0.01122  -0.00046   0.00029
  51        2S          0.00000  -0.00163   0.00348   0.00002   0.00003
                          46        47        48        49        50
  46        4XZ         0.00026
  47        4YZ         0.00000   0.00009
  48 5   H  1S          0.00000   0.00000   0.19373
  49        2S          0.00000   0.00000   0.04475   0.03104
  50 6   H  1S          0.00000   0.00000  -0.00097  -0.00473   0.19017
  51        2S          0.00000   0.00000  -0.00372  -0.00292   0.04131
                          51
  51        2S          0.03195
     Gross orbital populations:
                           1
   1 1   C  1S          1.99660
   2        2S          0.69601
   3        2PX         0.71105
   4        2PY         0.74251
   5        2PZ         0.41554
   6        3S          0.33361
   7        3PX         0.02752
   8        3PY         0.18522
   9        3PZ         0.24597
  10        4XX         0.04877
  11        4YY         0.04375
  12        4ZZ        -0.02725
  13        4XY         0.03404
  14        4XZ         0.03277
  15        4YZ         0.00556
  16 2   O  1S          1.99553
  17        2S          0.90315
  18        2PX         0.96057
  19        2PY         1.05836
  20        2PZ         0.83917
  21        3S          0.95029
  22        3PX         0.53055
  23        3PY         0.63848
  24        3PZ         0.63694
  25        4XX         0.01281
  26        4YY         0.00554
  27        4ZZ         0.00093
  28        4XY         0.00886
  29        4XZ         0.00970
  30        4YZ         0.00377
  31 3   H  1S          0.54160
  32        2S          0.31509
  33 4   N  1S          1.99525
  34        2S          0.74452
  35        2PX         0.78695
  36        2PY         0.78854
  37        2PZ         0.97726
  38        3S          0.78292
  39        3PX         0.41965
  40        3PY         0.49415
  41        3PZ         0.83065
  42        4XX         0.02844
  43        4YY         0.03656
  44        4ZZ        -0.01487
  45        4XY         0.01156
  46        4XZ         0.00225
  47        4YZ         0.00043
  48 5   H  1S          0.49587
  49        2S          0.11522
  50 6   H  1S          0.48962
  51        2S          0.11201
          Condensed to atoms (all electrons):
               1          2          3          4          5          6
     1  C    4.225737   0.612853   0.412475   0.263638  -0.013646  -0.009397
     2  O    0.612853   8.077567  -0.052041  -0.092349   0.002376   0.006251
     3  H    0.412475  -0.052041   0.596264  -0.108557   0.003798   0.004753
     4  N    0.263638  -0.092349  -0.108557   7.197291   0.316619   0.307622
     5  H   -0.013646   0.002376   0.003798   0.316619   0.314278  -0.012338
     6  H   -0.009397   0.006251   0.004753   0.307622  -0.012338   0.304746
 Mulliken charges:
               1
     1  C    0.508340
     2  O   -0.554658
     3  H    0.143307
     4  N   -0.884264
     5  H    0.388912
     6  H    0.398363
 Sum of Mulliken charges =   0.00000
 Mulliken charges with hydrogens summed into heavy atoms:
               1
     1  C    0.651647
     2  O   -0.554658
     4  N   -0.096989
 Atomic Valencies and Mayer Atomic Bond Orders:
               1          2          3          4          5          6
     1  C    3.841075   1.840181   0.932362   1.074177  -0.003347  -0.002298
     2  O    1.840181   1.923622   0.018105   0.043489   0.010838   0.011008
     3  H    0.932362   0.018105   0.931562  -0.028190   0.000836   0.008450
     4  N    1.074177   0.043489  -0.028190   2.719825   0.820380   0.809969
     5  H   -0.003347   0.010838   0.000836   0.820380   0.826027  -0.002680
     6  H   -0.002298   0.011008   0.008450   0.809969  -0.002680   0.824447
 Lowdin Atomic Charges:
               1
     1  C    0.150648
     2  O   -0.355072
     3  H    0.123574
     4  N   -0.528901
     5  H    0.303594
     6  H    0.306156
 Sum of Lowdin charges  =   0.00000
 Lowdin atomic charges with hydrogens summed into heavy atoms:
               1
     1  C    0.274222
     2  O   -0.355072
     3  H    0.000000
     4  N    0.080849
     5  H    0.000000
     6  H    0.000000
 Sum of Lowdin charges  =   0.00000
 Dipole moment from Lowdin charges (Debye):
    X=     3.5586    Y=     0.8793    Z=    -0.0022  Tot=     3.6656
 Electronic spatial extent (au):  <R**2>=            143.4378
 Charge=              0.0000 electrons
 Dipole moment (field-independent basis, Debye):
    X=              3.9410    Y=              1.1329    Z=             -0.0029  Tot=              4.1006
 Quadrupole moment (field-independent basis, Debye-Ang):
   XX=            -17.9625   YY=            -14.7903   ZZ=            -18.5077
   XY=             -1.1987   XZ=             -0.0053   YZ=              0.0006
 Traceless Quadrupole moment (field-independent basis, Debye-Ang):
   XX=             -0.8757   YY=              2.2965   ZZ=             -1.4208
   XY=             -1.1987   XZ=             -0.0053   YZ=              0.0006
 Octapole moment (field-independent basis, Debye-Ang**2):
  XXX=             12.6698  YYY=             -2.0382  ZZZ=             -0.0029  XYY=              2.8702
  XXY=              1.1490  XXZ=             -0.0087  XZZ=             -1.5311  YZZ=             -0.0666
  YYZ=             -0.0021  XYZ=              0.0003
 Hexadecapole moment (field-independent basis, Debye-Ang**3):
 XXXX=           -104.0653 YYYY=            -30.3873 ZZZZ=            -15.6663 XXXY=              2.4936
 XXXZ=             -0.0171 YYYX=             -3.1962 YYYZ=              0.0017 ZZZX=             -0.0043
 ZZZY=              0.0005 XXYY=            -21.5218 XXZZ=            -23.5948 YYZZ=             -8.6628
 XXYZ=             -0.0004 YYXZ=             -0.0030 ZZXY=              0.2832
 N-N= 7.207465849138D+01 E-N=-5.418273114468D+02  KE= 1.685854567551D+02
 Orbital energies and kinetic energies (alpha):
                                 1                 2
   1         O               -20.530073         29.146981
   2         O               -15.591173         22.072456
   3         O               -11.350512         16.006458
   4         O                -1.393187          2.558491
   5         O                -1.220110          2.032554
   6         O                -0.850173          1.632262
   7         O                -0.753344          1.393793
   8         O                -0.673732          1.741103
   9         O                -0.607086          2.090235
  10         O                -0.571581          1.526636
  11         O                -0.428565          2.204840
  12         O                -0.414898          1.886919
  13         V                 0.211685          1.692626
  14         V                 0.221345          0.974740
  15         V                 0.258694          0.879205
  16         V                 0.317447          0.991279
  17         V                 0.428157          1.222023
  18         V                 0.546285          1.743427
  19         V                 0.750239          2.081875
  20         V                 0.757082          1.910995
  21         V                 0.863219          1.858918
  22         V                 0.928034          2.447447
  23         V                 0.965512          2.804380
  24         V                 0.989134          3.079400
  25         V                 1.072143          2.233743
  26         V                 1.120107          2.929721
  27         V                 1.169843          3.245039
  28         V                 1.198601          3.606471
  29         V                 1.308354          3.651285
  30         V                 1.335340          2.826436
  31         V                 1.461419          2.788995
  32         V                 1.573322          2.833000
  33         V                 1.641746          2.630634
  34         V                 1.747954          2.674044
  35         V                 1.757899          2.551640
  36         V                 1.981654          2.899881
  37         V                 2.064931          2.879480
  38         V                 2.157324          2.934037
  39         V                 2.203187          3.512141
  40         V                 2.367189          3.347848
  41         V                 2.476842          4.012556
  42         V                 2.634624          3.567159
  43         V                 2.638734          3.836387
  44         V                 2.856733          4.327008
  45         V                 2.997116          3.904502
  46         V                 3.048047          4.600464
  47         V                 3.312346          4.802976
  48         V                 3.417499          5.054929
  49         V                 4.168323         10.011408
  50         V                 4.309397         10.569606
  51         V                 4.601006         10.136806
 Total kinetic energy from orbitals= 1.685854567551D+02

 Test job not archived.
 1\1\GINC-KADET27\FOpt\RHF\6-31G(d)\C1H3N1O1\MDOROHUN\22-Apr-2026\0\\# 
 RHF/6-31G(d) GFInput Opt Pop=Full IOP(6/80=1)\\Optymalizacja cząstecz
 ki formamidu\\0,1\C,-0.0119093527,-0.0350900637,0.0081085283\O,-0.0065
 295801,-0.1540690473,1.1950040718\H,0.8738268701,0.2673077247,-0.55203
 76542\N,-1.0808174479,-0.2510621905,-0.7850495661\H,-1.0333139526,-0.1
 369042368,-1.7701909528\H,-1.9432435368,-0.5311731863,-0.3741634271\\V
 ersion=ES64L-G09RevD.01\State=1-A\HF=-168.9307027\RMSD=3.807e-09\RMSF=
 1.679e-06\Dipole=-0.4270232,0.0407446,-1.5552178\Quadrupole=1.6430456,
 -0.815512,-0.8275336,0.8031,-0.5644111,-0.1829621\PG=C01 [X(C1H3N1O1)]
 \\@


 THE DIFFERENCE BETWEEN A NOOSE AND A HALO IS ONLY 12 INCHES.
 Job cpu time:       0 days  0 hours  0 minutes  5.4 seconds.
 File lengths (MBytes):  RWF=      5 Int=      0 D2E=      0 Chk=      1 Scr=      1
 Normal termination of Gaussian 09 at Wed Apr 22 12:36:31 2026.
