 Entering Gaussian System, Link 0=/opt/g09/g09/g09
 Input=O.inp
 Output=O.log
 Initial command:
 /opt/g09/g09/l1.exe "/tmp/Gau-13166.inp" -scrdir="/tmp/"
 Entering Link 1 = /opt/g09/g09/l1.exe PID=     13168.
  
 Copyright (c) 1988,1990,1992,1993,1995,1998,2003,2009,2013,
            Gaussian, Inc.  All Rights Reserved.
  
 This is part of the Gaussian(R) 09 program.  It is based on
 the Gaussian(R) 03 system (copyright 2003, Gaussian, Inc.),
 the Gaussian(R) 98 system (copyright 1998, Gaussian, Inc.),
 the Gaussian(R) 94 system (copyright 1995, Gaussian, Inc.),
 the Gaussian 92(TM) system (copyright 1992, Gaussian, Inc.),
 the Gaussian 90(TM) system (copyright 1990, Gaussian, Inc.),
 the Gaussian 88(TM) system (copyright 1988, Gaussian, Inc.),
 the Gaussian 86(TM) system (copyright 1986, Carnegie Mellon
 University), and the Gaussian 82(TM) system (copyright 1983,
 Carnegie Mellon University). Gaussian is a federally registered
 trademark of Gaussian, Inc.
  
 This software contains proprietary and confidential information,
 including trade secrets, belonging to Gaussian, Inc.
  
 This software is provided under written license and may be
 used, copied, transmitted, or stored only in accord with that
 written license.
  
 The following legend is applicable only to US Government
 contracts under FAR:
  
                    RESTRICTED RIGHTS LEGEND
  
 Use, reproduction and disclosure by the US Government is
 subject to restrictions as set forth in subparagraphs (a)
 and (c) of the Commercial Computer Software - Restricted
 Rights clause in FAR 52.227-19.
  
 Gaussian, Inc.
 340 Quinnipiac St., Bldg. 40, Wallingford CT 06492
  
  
 ---------------------------------------------------------------
 Warning -- This program may not be used in any manner that
 competes with the business of Gaussian, Inc. or will provide
 assistance to any competitor of Gaussian, Inc.  The licensee
 of this program is prohibited from giving any competitor of
 Gaussian, Inc. access to this program.  By using this program,
 the user acknowledges that Gaussian, Inc. is engaged in the
 business of creating and licensing software in the field of
 computational chemistry and represents and warrants to the
 licensee that it is not a competitor of Gaussian, Inc. and that
 it will not use this program in any manner prohibited above.
 ---------------------------------------------------------------
  

 Cite this work as:
 Gaussian 09, Revision D.01,
 M. J. Frisch, G. W. Trucks, H. B. Schlegel, G. E. Scuseria, 
 M. A. Robb, J. R. Cheeseman, G. Scalmani, V. Barone, B. Mennucci, 
 G. A. Petersson, H. Nakatsuji, M. Caricato, X. Li, H. P. Hratchian, 
 A. F. Izmaylov, J. Bloino, G. Zheng, J. L. Sonnenberg, M. Hada, 
 M. Ehara, K. Toyota, R. Fukuda, J. Hasegawa, M. Ishida, T. Nakajima, 
 Y. Honda, O. Kitao, H. Nakai, T. Vreven, J. A. Montgomery, Jr., 
 J. E. Peralta, F. Ogliaro, M. Bearpark, J. J. Heyd, E. Brothers, 
 K. N. Kudin, V. N. Staroverov, T. Keith, R. Kobayashi, J. Normand, 
 K. Raghavachari, A. Rendell, J. C. Burant, S. S. Iyengar, J. Tomasi, 
 M. Cossi, N. Rega, J. M. Millam, M. Klene, J. E. Knox, J. B. Cross, 
 V. Bakken, C. Adamo, J. Jaramillo, R. Gomperts, R. E. Stratmann, 
 O. Yazyev, A. J. Austin, R. Cammi, C. Pomelli, J. W. Ochterski, 
 R. L. Martin, K. Morokuma, V. G. Zakrzewski, G. A. Voth, 
 P. Salvador, J. J. Dannenberg, S. Dapprich, A. D. Daniels, 
 O. Farkas, J. B. Foresman, J. V. Ortiz, J. Cioslowski, 
 and D. J. Fox, Gaussian, Inc., Wallingford CT, 2013.
 
 ******************************************
 Gaussian 09:  ES64L-G09RevD.01 24-Apr-2013
                22-Apr-2026 
 ******************************************
 -------------------------------------------
 # UHF/6-31G(d) GFInput Pop=Full IOP(6/80=1)
 -------------------------------------------
 1/38=1/1;
 2/12=2,17=6,18=5,40=1/2;
 3/5=1,6=6,7=1,11=2,16=1,24=10,25=1,30=1,116=2/1,2,3;
 4//1;
 5/5=2,38=5/2;
 6/7=3,28=1,80=1/1;
 99/5=1,9=1/99;
 ----
 Tlen
 ----
 Symbolic Z-matrix:
 Charge =  0 Multiplicity = 3
 O                     0.        0.        0. 
 
                          Input orientation:                          
 ---------------------------------------------------------------------
 Center     Atomic      Atomic             Coordinates (Angstroms)
 Number     Number       Type             X           Y           Z
 ---------------------------------------------------------------------
      1          8           0        0.000000    0.000000    0.000000
 ---------------------------------------------------------------------
 Stoichiometry    O(3)
 Framework group  OH[O(O)]
 Deg. of freedom     0
 Full point group                 OH      NOp  48
 Largest Abelian subgroup         D2H     NOp   8
 Largest concise Abelian subgroup C1      NOp   1
                         Standard orientation:                         
 ---------------------------------------------------------------------
 Center     Atomic      Atomic             Coordinates (Angstroms)
 Number     Number       Type             X           Y           Z
 ---------------------------------------------------------------------
      1          8           0        0.000000    0.000000    0.000000
 ---------------------------------------------------------------------
 Standard basis: 6-31G(d) (6D, 7F)
 AO basis set in the form of general basis input (Overlap normalization):
      1 0
 S   6 1.00       0.000000000000
      0.5484671660D+04  0.1831074430D-02
      0.8252349460D+03  0.1395017220D-01
      0.1880469580D+03  0.6844507810D-01
      0.5296450000D+02  0.2327143360D+00
      0.1689757040D+02  0.4701928980D+00
      0.5799635340D+01  0.3585208530D+00
 SP   3 1.00       0.000000000000
      0.1553961625D+02 -0.1107775495D+00  0.7087426823D-01
      0.3599933586D+01 -0.1480262627D+00  0.3397528391D+00
      0.1013761750D+01  0.1130767015D+01  0.7271585773D+00
 SP   1 1.00       0.000000000000
      0.2700058226D+00  0.1000000000D+01  0.1000000000D+01
 D   1 1.00       0.000000000000
      0.8000000000D+00  0.1000000000D+01
 ****

 There are     6 symmetry adapted cartesian basis functions of AG  symmetry.
 There are     1 symmetry adapted cartesian basis functions of B1G symmetry.
 There are     1 symmetry adapted cartesian basis functions of B2G symmetry.
 There are     1 symmetry adapted cartesian basis functions of B3G symmetry.
 There are     0 symmetry adapted cartesian basis functions of AU  symmetry.
 There are     2 symmetry adapted cartesian basis functions of B1U symmetry.
 There are     2 symmetry adapted cartesian basis functions of B2U symmetry.
 There are     2 symmetry adapted cartesian basis functions of B3U symmetry.
 There are     6 symmetry adapted basis functions of AG  symmetry.
 There are     1 symmetry adapted basis functions of B1G symmetry.
 There are     1 symmetry adapted basis functions of B2G symmetry.
 There are     1 symmetry adapted basis functions of B3G symmetry.
 There are     0 symmetry adapted basis functions of AU  symmetry.
 There are     2 symmetry adapted basis functions of B1U symmetry.
 There are     2 symmetry adapted basis functions of B2U symmetry.
 There are     2 symmetry adapted basis functions of B3U symmetry.
    15 basis functions,    28 primitive gaussians,    15 cartesian basis functions
     5 alpha electrons        3 beta electrons
       nuclear repulsion energy         0.0000000000 Hartrees.
 NAtoms=    1 NActive=    1 NUniq=    1 SFac= 1.00D+00 NAtFMM=   60 NAOKFM=F Big=F
 Integral buffers will be    131072 words long.
 Raffenetti 2 integral format.
 Two-electron integral symmetry is turned on.
 One-electron integrals computed using PRISM.
 NBasis=    15 RedAO= T EigKep=  1.88D-01  NBF=     6     1     1     1     0     2     2     2
 NBsUse=    15 1.00D-06 EigRej= -1.00D+00 NBFU=     6     1     1     1     0     2     2     2
 ExpMin= 2.70D-01 ExpMax= 5.48D+03 ExpMxC= 8.25D+02 IAcc=1 IRadAn=         1 AccDes= 0.00D+00
 Harris functional with IExCor=  205 and IRadAn=       1 diagonalized for initial guess.
 HarFok:  IExCor=  205 AccDes= 0.00D+00 IRadAn=         1 IDoV= 1 UseB2=F ITyADJ=14
 ICtDFT=  3500011 ScaDFX=  1.000000  1.000000  1.000000  1.000000
 FoFCou: FMM=F IPFlag=           0 FMFlag=      100000 FMFlg1=           0
         NFxFlg=           0 DoJE=T BraDBF=F KetDBF=T FulRan=T
         wScrn=  0.000000 ICntrl=     500 IOpCl=  0 I1Cent=   200000004 NGrid=           0
         NMat0=    1 NMatS0=      1 NMatT0=    0 NMatD0=    1 NMtDS0=    0 NMtDT0=    0
 Petite list used in FoFCou.
 Initial guess orbital symmetries:
 Alpha Orbitals:
       Occupied  (A1G) (A1G) (T1U) (T1U) (T1U)
       Virtual   (A1G) (T1U) (T1U) (T1U) (EG) (EG) (T2G) (T2G)
                 (T2G) (A1G)
 Beta  Orbitals:
       Occupied  (A1G) (A1G) (T1U)
       Virtual   (T1U) (T1U) (A1G) (T1U) (T1U) (T1U) (EG) (EG)
                 (T2G) (T2G) (T2G) (A1G)
 Initial guess <Sx>= 0.0000 <Sy>= 0.0000 <Sz>= 1.0000 <S**2>= 2.0000 S= 1.0000
 Keep R1 and R2 ints in memory in symmetry-blocked form, NReq=853456.
 Requested convergence on RMS density matrix=1.00D-08 within 128 cycles.
 Requested convergence on MAX density matrix=1.00D-06.
 Requested convergence on             energy=1.00D-06.
 No special actions if energy rises.
 Density matrix breaks symmetry, PCut= 1.00D-04
 Density has only Abelian symmetry.
 Density matrix breaks symmetry, PCut= 1.00D-07
 Density has only Abelian symmetry.
 Density matrix breaks symmetry, PCut= 1.00D-07
 Density has only Abelian symmetry.
 Density matrix breaks symmetry, PCut= 1.00D-07
 Density has only Abelian symmetry.
 Density matrix breaks symmetry, PCut= 1.00D-07
 Density has only Abelian symmetry.
 Density matrix breaks symmetry, PCut= 1.00D-07
 Density has only Abelian symmetry.
 Density matrix breaks symmetry, PCut= 1.00D-07
 Density has only Abelian symmetry.
 Density matrix breaks symmetry, PCut= 1.00D-07
 Density has only Abelian symmetry.
 Density matrix breaks symmetry, PCut= 1.00D-07
 Density has only Abelian symmetry.
 Density matrix breaks symmetry, PCut= 1.00D-07
 Density has only Abelian symmetry.
 SCF Done:  E(UHF) =  -74.7839336097     A.U. after    9 cycles
            NFock=  9  Conv=0.48D-08     -V/T= 2.0032
 <Sx>= 0.0000 <Sy>= 0.0000 <Sz>= 1.0000 <S**2>= 2.0057 S= 1.0019
 <L.S>= 0.000000000000E+00
 Annihilation of the first spin contaminant:
 S**2 before annihilation     2.0057,   after     2.0000

 **********************************************************************

            Population analysis using the SCF density.

 **********************************************************************

 Orbital symmetries:
 Alpha Orbitals:
       Occupied  (A1G) (?A) (?B) (?B) (?B)
       Virtual   (A1G) (?B) (?B) (?B) (T2G) (?A) (T2G) (T2G) (?A)
                 (?A)
 Beta  Orbitals:
       Occupied  (A1G) (?A) (?B)
       Virtual   (?B) (?B) (?A) (?B) (?B) (?B) (?A) (T2G) (T2G)
                 (?A) (T2G) (?A)
 Unable to determine electronic state:  an orbital has unidentified symmetry.
 Alpha  occ. eigenvalues --  -20.71532  -1.40817  -0.70034  -0.70034  -0.60402
 Alpha virt. eigenvalues --    0.87791   1.03618   1.03618   1.09587   1.94345
 Alpha virt. eigenvalues --    1.94345   1.99978   1.99978   2.01951   3.50843
  Beta  occ. eigenvalues --  -20.63796  -1.07068  -0.51527
  Beta virt. eigenvalues --    0.12866   0.12866   0.94276   1.14094   1.25721
  Beta virt. eigenvalues --    1.25721   2.09735   2.10612   2.10612   2.13805
  Beta virt. eigenvalues --    2.13805   3.59359
     Alpha Molecular Orbital Coefficients:
                           1         2         3         4         5
                       (A1G)--O      O         O         O         O
     Eigenvalues --   -20.71532  -1.40817  -0.70034  -0.70034  -0.60402
   1 1   O  1S          0.99403  -0.23426   0.00000   0.00000   0.00000
   2        2S          0.02333   0.58500   0.00000   0.00000   0.00000
   3        2PX         0.00000   0.00000   0.00000   0.00000   0.69502
   4        2PY         0.00000   0.00000   0.00000   0.71534   0.00000
   5        2PZ         0.00000   0.00000   0.71534   0.00000   0.00000
   6        3S          0.00489   0.47715   0.00000   0.00000   0.00000
   7        3PX         0.00000   0.00000   0.00000   0.00000   0.45047
   8        3PY         0.00000   0.00000   0.00000   0.42673   0.00000
   9        3PZ         0.00000   0.00000   0.42673   0.00000   0.00000
  10        4XX        -0.00492  -0.00761   0.00000   0.00000   0.00000
  11        4YY        -0.00463   0.02283   0.00000   0.00000   0.00000
  12        4ZZ        -0.00463   0.02283   0.00000   0.00000   0.00000
  13        4XY         0.00000   0.00000   0.00000   0.00000   0.00000
  14        4XZ         0.00000   0.00000   0.00000   0.00000   0.00000
  15        4YZ         0.00000   0.00000   0.00000   0.00000   0.00000
                           6         7         8         9        10
                       (A1G)--V      V         V         V     (T2G)--V
     Eigenvalues --     0.87791   1.03618   1.03618   1.09587   1.94345
   1 1   O  1S         -0.02729   0.00000   0.00000   0.00000   0.00000
   2        2S         -1.30064   0.00000   0.00000   0.00000   0.00000
   3        2PX         0.00000   0.00000   0.00000  -0.92358   0.00000
   4        2PY         0.00000   0.00000  -0.90793   0.00000   0.00000
   5        2PZ         0.00000  -0.90793   0.00000   0.00000   0.00000
   6        3S          2.29341   0.00000   0.00000   0.00000   0.00000
   7        3PX         0.00000   0.00000   0.00000   1.06448   0.00000
   8        3PY         0.00000   0.00000   1.07422   0.00000   0.00000
   9        3PZ         0.00000   1.07422   0.00000   0.00000   0.00000
  10        4XX        -0.44510   0.00000   0.00000   0.00000   0.00000
  11        4YY        -0.45201   0.00000   0.00000   0.00000   0.00000
  12        4ZZ        -0.45201   0.00000   0.00000   0.00000   0.00000
  13        4XY         0.00000   0.00000   0.00000   0.00000   0.00000
  14        4XZ         0.00000   0.00000   0.00000   0.00000   0.00000
  15        4YZ         0.00000   0.00000   0.00000   0.00000   1.00000
                          11        12        13        14        15
                           V     (T2G)--V  (T2G)--V      V         V
     Eigenvalues --     1.94345   1.99978   1.99978   2.01951   3.50843
   1 1   O  1S          0.00000   0.00000   0.00000  -0.00964  -0.39785
   2        2S          0.00000   0.00000   0.00000   0.02697   0.69578
   3        2PX         0.00000   0.00000   0.00000   0.00000   0.00000
   4        2PY         0.00000   0.00000   0.00000   0.00000   0.00000
   5        2PZ         0.00000   0.00000   0.00000   0.00000   0.00000
   6        3S          0.00000   0.00000   0.00000   0.02728   2.15189
   7        3PX         0.00000   0.00000   0.00000   0.00000   0.00000
   8        3PY         0.00000   0.00000   0.00000   0.00000   0.00000
   9        3PZ         0.00000   0.00000   0.00000   0.00000   0.00000
  10        4XX         0.00000   0.00000   0.00000   0.98499  -1.31510
  11        4YY         0.86603   0.00000   0.00000  -0.51456  -1.29548
  12        4ZZ        -0.86603   0.00000   0.00000  -0.51456  -1.29548
  13        4XY         0.00000   0.00000   1.00000   0.00000   0.00000
  14        4XZ         0.00000   1.00000   0.00000   0.00000   0.00000
  15        4YZ         0.00000   0.00000   0.00000   0.00000   0.00000
     Beta Molecular Orbital Coefficients:
                           1         2         3         4         5
                       (A1G)--O      O         O         V         V
     Eigenvalues --   -20.63796  -1.07068  -0.51527   0.12866   0.12866
   1 1   O  1S          0.99563  -0.22767   0.00000   0.00000   0.00000
   2        2S          0.01795   0.51975   0.00000   0.00000   0.00000
   3        2PX         0.00000   0.00000   0.65981   0.00000   0.00000
   4        2PY         0.00000   0.00000   0.00000   0.00000   0.49937
   5        2PZ         0.00000   0.00000   0.00000   0.49937   0.00000
   6        3S          0.00225   0.55990   0.00000   0.00000   0.00000
   7        3PX         0.00000   0.00000   0.49016   0.00000   0.00000
   8        3PY         0.00000   0.00000   0.00000   0.00000   0.65142
   9        3PZ         0.00000   0.00000   0.00000   0.65142   0.00000
  10        4XX        -0.00228   0.03118   0.00000   0.00000   0.00000
  11        4YY        -0.00347  -0.00914   0.00000   0.00000   0.00000
  12        4ZZ        -0.00347  -0.00914   0.00000   0.00000   0.00000
  13        4XY         0.00000   0.00000   0.00000   0.00000   0.00000
  14        4XZ         0.00000   0.00000   0.00000   0.00000   0.00000
  15        4YZ         0.00000   0.00000   0.00000   0.00000   0.00000
                           6         7         8         9        10
                           V         V         V         V         V
     Eigenvalues --     0.94276   1.14094   1.25721   1.25721   2.09735
   1 1   O  1S         -0.02564   0.00000   0.00000   0.00000   0.00199
   2        2S         -1.31236   0.00000   0.00000   0.00000  -0.01981
   3        2PX         0.00000  -0.94905   0.00000   0.00000   0.00000
   4        2PY         0.00000   0.00000   0.00000   1.04244   0.00000
   5        2PZ         0.00000   0.00000   1.04244   0.00000   0.00000
   6        3S          2.30908   0.00000   0.00000   0.00000   0.02175
   7        3PX         0.00000   1.04680   0.00000   0.00000   0.00000
   8        3PY         0.00000   0.00000   0.00000  -0.95483   0.00000
   9        3PZ         0.00000   0.00000  -0.95483   0.00000   0.00000
  10        4XX        -0.48249   0.00000   0.00000   0.00000   0.98517
  11        4YY        -0.46934   0.00000   0.00000   0.00000  -0.51418
  12        4ZZ        -0.46934   0.00000   0.00000   0.00000  -0.51418
  13        4XY         0.00000   0.00000   0.00000   0.00000   0.00000
  14        4XZ         0.00000   0.00000   0.00000   0.00000   0.00000
  15        4YZ         0.00000   0.00000   0.00000   0.00000   0.00000
                          11        12        13        14        15
                       (T2G)--V  (T2G)--V      V     (T2G)--V      V
     Eigenvalues --     2.10612   2.10612   2.13805   2.13805   3.59359
   1 1   O  1S          0.00000   0.00000   0.00000   0.00000  -0.39788
   2        2S          0.00000   0.00000   0.00000   0.00000   0.72535
   3        2PX         0.00000   0.00000   0.00000   0.00000   0.00000
   4        2PY         0.00000   0.00000   0.00000   0.00000   0.00000
   5        2PZ         0.00000   0.00000   0.00000   0.00000   0.00000
   6        3S          0.00000   0.00000   0.00000   0.00000   2.11494
   7        3PX         0.00000   0.00000   0.00000   0.00000   0.00000
   8        3PY         0.00000   0.00000   0.00000   0.00000   0.00000
   9        3PZ         0.00000   0.00000   0.00000   0.00000   0.00000
  10        4XX         0.00000   0.00000   0.00000   0.00000  -1.30137
  11        4YY         0.00000   0.00000   0.86603   0.00000  -1.28962
  12        4ZZ         0.00000   0.00000  -0.86603   0.00000  -1.28962
  13        4XY         0.00000   1.00000   0.00000   0.00000   0.00000
  14        4XZ         1.00000   0.00000   0.00000   0.00000   0.00000
  15        4YZ         0.00000   0.00000   0.00000   1.00000   0.00000
     Alpha Density Matrix:
                           1         2         3         4         5
   1 1   O  1S          1.04297
   2        2S         -0.11386   0.34277
   3        2PX         0.00000   0.00000   0.48305
   4        2PY         0.00000   0.00000   0.00000   0.51172
   5        2PZ         0.00000   0.00000   0.00000   0.00000   0.51172
   6        3S         -0.10692   0.27925   0.00000   0.00000   0.00000
   7        3PX         0.00000   0.00000   0.31308   0.00000   0.00000
   8        3PY         0.00000   0.00000   0.00000   0.30526   0.00000
   9        3PZ         0.00000   0.00000   0.00000   0.00000   0.30526
  10        4XX        -0.00311  -0.00456   0.00000   0.00000   0.00000
  11        4YY        -0.00995   0.01325   0.00000   0.00000   0.00000
  12        4ZZ        -0.00995   0.01325   0.00000   0.00000   0.00000
  13        4XY         0.00000   0.00000   0.00000   0.00000   0.00000
  14        4XZ         0.00000   0.00000   0.00000   0.00000   0.00000
  15        4YZ         0.00000   0.00000   0.00000   0.00000   0.00000
                           6         7         8         9        10
   6        3S          0.22770
   7        3PX         0.00000   0.20292
   8        3PY         0.00000   0.00000   0.18210
   9        3PZ         0.00000   0.00000   0.00000   0.18210
  10        4XX        -0.00365   0.00000   0.00000   0.00000   0.00008
  11        4YY         0.01087   0.00000   0.00000   0.00000  -0.00015
  12        4ZZ         0.01087   0.00000   0.00000   0.00000  -0.00015
  13        4XY         0.00000   0.00000   0.00000   0.00000   0.00000
  14        4XZ         0.00000   0.00000   0.00000   0.00000   0.00000
  15        4YZ         0.00000   0.00000   0.00000   0.00000   0.00000
                          11        12        13        14        15
  11        4YY         0.00054
  12        4ZZ         0.00054   0.00054
  13        4XY         0.00000   0.00000   0.00000
  14        4XZ         0.00000   0.00000   0.00000   0.00000
  15        4YZ         0.00000   0.00000   0.00000   0.00000   0.00000
     Beta Density Matrix:
                           1         2         3         4         5
   1 1   O  1S          1.04312
   2        2S         -0.10046   0.27046
   3        2PX         0.00000   0.00000   0.43535
   4        2PY         0.00000   0.00000   0.00000   0.00000
   5        2PZ         0.00000   0.00000   0.00000   0.00000   0.00000
   6        3S         -0.12523   0.29105   0.00000   0.00000   0.00000
   7        3PX         0.00000   0.00000   0.32341   0.00000   0.00000
   8        3PY         0.00000   0.00000   0.00000   0.00000   0.00000
   9        3PZ         0.00000   0.00000   0.00000   0.00000   0.00000
  10        4XX        -0.00937   0.01616   0.00000   0.00000   0.00000
  11        4YY        -0.00137  -0.00481   0.00000   0.00000   0.00000
  12        4ZZ        -0.00137  -0.00481   0.00000   0.00000   0.00000
  13        4XY         0.00000   0.00000   0.00000   0.00000   0.00000
  14        4XZ         0.00000   0.00000   0.00000   0.00000   0.00000
  15        4YZ         0.00000   0.00000   0.00000   0.00000   0.00000
                           6         7         8         9        10
   6        3S          0.31349
   7        3PX         0.00000   0.24025
   8        3PY         0.00000   0.00000   0.00000
   9        3PZ         0.00000   0.00000   0.00000   0.00000
  10        4XX         0.01745   0.00000   0.00000   0.00000   0.00098
  11        4YY        -0.00513   0.00000   0.00000   0.00000  -0.00028
  12        4ZZ        -0.00513   0.00000   0.00000   0.00000  -0.00028
  13        4XY         0.00000   0.00000   0.00000   0.00000   0.00000
  14        4XZ         0.00000   0.00000   0.00000   0.00000   0.00000
  15        4YZ         0.00000   0.00000   0.00000   0.00000   0.00000
                          11        12        13        14        15
  11        4YY         0.00010
  12        4ZZ         0.00010   0.00010
  13        4XY         0.00000   0.00000   0.00000
  14        4XZ         0.00000   0.00000   0.00000   0.00000
  15        4YZ         0.00000   0.00000   0.00000   0.00000   0.00000
    Full Mulliken population analysis:
                           1         2         3         4         5
   1 1   O  1S          2.08608
   2        2S         -0.05008   0.61323
   3        2PX         0.00000   0.00000   0.91840
   4        2PY         0.00000   0.00000   0.00000   0.51172
   5        2PZ         0.00000   0.00000   0.00000   0.00000   0.51172
   6        3S         -0.03883   0.43550   0.00000   0.00000   0.00000
   7        3PX         0.00000   0.00000   0.31921   0.00000   0.00000
   8        3PY         0.00000   0.00000   0.00000   0.15309   0.00000
   9        3PZ         0.00000   0.00000   0.00000   0.00000   0.15309
  10        4XX        -0.00042   0.00635   0.00000   0.00000   0.00000
  11        4YY        -0.00038   0.00461   0.00000   0.00000   0.00000
  12        4ZZ        -0.00038   0.00461   0.00000   0.00000   0.00000
  13        4XY         0.00000   0.00000   0.00000   0.00000   0.00000
  14        4XZ         0.00000   0.00000   0.00000   0.00000   0.00000
  15        4YZ         0.00000   0.00000   0.00000   0.00000   0.00000
                           6         7         8         9        10
   6        3S          0.54119
   7        3PX         0.00000   0.44317
   8        3PY         0.00000   0.00000   0.18210
   9        3PZ         0.00000   0.00000   0.00000   0.18210
  10        4XX         0.00964   0.00000   0.00000   0.00000   0.00106
  11        4YY         0.00402   0.00000   0.00000   0.00000  -0.00014
  12        4ZZ         0.00402   0.00000   0.00000   0.00000  -0.00014
  13        4XY         0.00000   0.00000   0.00000   0.00000   0.00000
  14        4XZ         0.00000   0.00000   0.00000   0.00000   0.00000
  15        4YZ         0.00000   0.00000   0.00000   0.00000   0.00000
                          11        12        13        14        15
  11        4YY         0.00064
  12        4ZZ         0.00021   0.00064
  13        4XY         0.00000   0.00000   0.00000
  14        4XZ         0.00000   0.00000   0.00000   0.00000
  15        4YZ         0.00000   0.00000   0.00000   0.00000   0.00000
     Gross orbital populations:
                         Total     Alpha     Beta      Spin
   1 1   O  1S          1.99599   0.99770   0.99829  -0.00059
   2        2S          1.01422   0.54141   0.47281   0.06859
   3        2PX         1.23761   0.64006   0.59755   0.04251
   4        2PY         0.66481   0.66481   0.00000   0.66481
   5        2PZ         0.66481   0.66481   0.00000   0.66481
   6        3S          0.95553   0.43570   0.51983  -0.08413
   7        3PX         0.76239   0.35994   0.40245  -0.04251
   8        3PY         0.33519   0.33519   0.00000   0.33519
   9        3PZ         0.33519   0.33519   0.00000   0.33519
  10        4XX         0.01635  -0.00517   0.02152  -0.02669
  11        4YY         0.00896   0.01518  -0.00623   0.02141
  12        4ZZ         0.00896   0.01518  -0.00623   0.02141
  13        4XY         0.00000   0.00000   0.00000   0.00000
  14        4XZ         0.00000   0.00000   0.00000   0.00000
  15        4YZ         0.00000   0.00000   0.00000   0.00000
          Condensed to atoms (all electrons):
               1
     1  O    8.000000
          Atomic-Atomic Spin Densities.
               1
     1  O    2.000000
 Mulliken charges and spin densities:
               1          2
     1  O    0.000000   2.000000
 Sum of Mulliken charges =   0.00000   2.00000
 Mulliken charges and spin densities with hydrogens summed into heavy atoms:
               1          2
     1  O    0.000000   2.000000
 Atomic Valencies and Mayer Atomic Bond Orders:
               1
     1  O    0.000000
 Lowdin Atomic Charges:
               1
     1  O    0.000000
 Sum of Lowdin charges  =   0.00000
 Lowdin atomic charges with hydrogens summed into heavy atoms:
               1
     1  O    0.000000
 Sum of Lowdin charges  =   0.00000
 Dipole moment from Lowdin charges (Debye):
    X=     0.0000    Y=     0.0000    Z=     0.0000  Tot=     0.0000
 Electronic spatial extent (au):  <R**2>=             10.9576
 Charge=              0.0000 electrons
 Dipole moment (field-independent basis, Debye):
    X=              0.0000    Y=              0.0000    Z=              0.0000  Tot=              0.0000
 Quadrupole moment (field-independent basis, Debye-Ang):
   XX=             -5.6954   YY=             -4.5215   ZZ=             -4.5215
   XY=              0.0000   XZ=              0.0000   YZ=              0.0000
 Traceless Quadrupole moment (field-independent basis, Debye-Ang):
   XX=             -0.7826   YY=              0.3913   ZZ=              0.3913
   XY=              0.0000   XZ=              0.0000   YZ=              0.0000
 Octapole moment (field-independent basis, Debye-Ang**2):
  XXX=              0.0000  YYY=              0.0000  ZZZ=              0.0000  XYY=              0.0000
  XXY=              0.0000  XXZ=              0.0000  XZZ=              0.0000  YZZ=              0.0000
  YYZ=              0.0000  XYZ=              0.0000
 Hexadecapole moment (field-independent basis, Debye-Ang**3):
 XXXX=             -4.0801 YYYY=             -2.7879 ZZZZ=             -2.7879 XXXY=              0.0000
 XXXZ=              0.0000 YYYX=              0.0000 YYYZ=              0.0000 ZZZX=              0.0000
 ZZZY=              0.0000 XXYY=             -1.1445 XXZZ=             -1.1445 YYZZ=             -0.9293
 XXYZ=              0.0000 YYXZ=              0.0000 ZZXY=              0.0000
 N-N= 0.000000000000D+00 E-N=-1.777647417662D+02  KE= 7.454897018292D+01
 Symmetry AG   KE= 6.438271433068D+01
 Symmetry B1G  KE= 1.786885306478D-35
 Symmetry B2G  KE= 1.786885306478D-35
 Symmetry B3G  KE=-8.599003954391D-53
 Symmetry AU   KE= 0.000000000000D+00
 Symmetry B1U  KE= 2.632776919615D+00
 Symmetry B2U  KE= 2.632776919615D+00
 Symmetry B3U  KE= 4.900702013013D+00
 Orbital energies and kinetic energies (alpha):
                                 1                 2
   1         (A1G)--O        -20.715321         29.102245
   2         O                -1.408171          3.169762
   3         O                -0.700340          2.632777
   4         O                -0.700340          2.632777
   5         O                -0.604022          2.533491
   6         (A1G)--V          0.877907          1.713496
   7         V                 1.036177          3.216412
   8         V                 1.036177          3.216412
   9         V                 1.095869          3.315699
  10         (T2G)--V          1.943455          2.800000
  11         V                 1.943455          2.800000
  12         (T2G)--V          1.999784          2.800000
  13         (T2G)--V          1.999784          2.800000
  14         V                 2.019514          2.803547
  15         V                 3.508434          8.941138
 Orbital energies and kinetic energies (beta):
                                 1                 2
   1         (A1G)--O        -20.637956         29.214282
   2         O                -1.070676          2.896426
   3         O                -0.515269          2.367211
   4         V                 0.128660          1.702749
   5         V                 0.128660          1.702749
   6         V                 0.942756          1.786080
   7         V                 1.140937          3.481978
   8         V                 1.257212          4.146440
   9         V                 1.257212          4.146440
  10         V                 2.097345          2.799143
  11         (T2G)--V          2.106123          2.800000
  12         (T2G)--V          2.106123          2.800000
  13         V                 2.138051          2.800000
  14         (T2G)--V          2.138051          2.800000
  15         V                 3.593591          9.034258
 Total kinetic energy from orbitals= 7.454897018292D+01
                          Isotropic Fermi Contact Couplings
        Atom                 a.u.       MegaHertz       Gauss      10(-4) cm-1
     1  O(17)              0.11435     -34.65809     -12.36687     -11.56070
 --------------------------------------------------------
       Center         ----  Spin Dipole Couplings  ----
                      3XX-RR        3YY-RR        3ZZ-RR
 --------------------------------------------------------
     1   Atom       -3.660583      1.830291      1.830291
 --------------------------------------------------------
                        XY            XZ            YZ
 --------------------------------------------------------
     1   Atom        0.000000      0.000000      0.000000
 --------------------------------------------------------


 ---------------------------------------------------------------------------------
              Anisotropic Spin Dipole Couplings in Principal Axis System
 ---------------------------------------------------------------------------------

       Atom             a.u.   MegaHertz   Gauss  10(-4) cm-1        Axes

              Baa    -3.6606   264.877    94.515    88.354  1.0000  0.0000  0.0000
     1 O(17)  Bbb     1.8303  -132.439   -47.257   -44.177  0.0000  1.0000  0.0000
              Bcc     1.8303  -132.439   -47.257   -44.177  0.0000  0.0000  1.0000
 

 ---------------------------------------------------------------------------------


 Test job not archived.
 1\1\GINC-KADET27\SP\UHF\6-31G(d)\O1(3)\MDOROHUN\22-Apr-2026\0\\# UHF/6
 -31G(d) GFInput Pop=Full IOP(6/80=1)\\Tlen\\0,3\O,0,0.,0.,0.\\Version=
 ES64L-G09RevD.01\HF=-74.7839336\S2=2.005733\S2-1=0.\S2A=2.000009\RMSD=
 4.796e-09\Dipole=0.,0.,0.\Quadrupole=0.2909136,0.2909136,-0.5818273,0.
 ,0.,0.\PG=OH [O(O1)]\\@


 GOORD'S AXIOM:  A MEETING IS AN EVENT AT WHICH
 THE MINUTES ARE KEPT AND THE HOURS ARE LOST.
 Job cpu time:       0 days  0 hours  0 minutes  0.3 seconds.
 File lengths (MBytes):  RWF=      5 Int=      0 D2E=      0 Chk=      1 Scr=      1
 Normal termination of Gaussian 09 at Wed Apr 22 13:18:28 2026.
