 Entering Gaussian System, Link 0=/opt/g09/g09/g09
 Input=o2_opt.inp
 Output=o2_opt.log
 Initial command:
 /opt/g09/g09/l1.exe "/tmp/Gau-11099.inp" -scrdir="/tmp/"
 Entering Link 1 = /opt/g09/g09/l1.exe PID=     11101.
  
 Copyright (c) 1988,1990,1992,1993,1995,1998,2003,2009,2013,
            Gaussian, Inc.  All Rights Reserved.
  
 This is part of the Gaussian(R) 09 program.  It is based on
 the Gaussian(R) 03 system (copyright 2003, Gaussian, Inc.),
 the Gaussian(R) 98 system (copyright 1998, Gaussian, Inc.),
 the Gaussian(R) 94 system (copyright 1995, Gaussian, Inc.),
 the Gaussian 92(TM) system (copyright 1992, Gaussian, Inc.),
 the Gaussian 90(TM) system (copyright 1990, Gaussian, Inc.),
 the Gaussian 88(TM) system (copyright 1988, Gaussian, Inc.),
 the Gaussian 86(TM) system (copyright 1986, Carnegie Mellon
 University), and the Gaussian 82(TM) system (copyright 1983,
 Carnegie Mellon University). Gaussian is a federally registered
 trademark of Gaussian, Inc.
  
 This software contains proprietary and confidential information,
 including trade secrets, belonging to Gaussian, Inc.
  
 This software is provided under written license and may be
 used, copied, transmitted, or stored only in accord with that
 written license.
  
 The following legend is applicable only to US Government
 contracts under FAR:
  
                    RESTRICTED RIGHTS LEGEND
  
 Use, reproduction and disclosure by the US Government is
 subject to restrictions as set forth in subparagraphs (a)
 and (c) of the Commercial Computer Software - Restricted
 Rights clause in FAR 52.227-19.
  
 Gaussian, Inc.
 340 Quinnipiac St., Bldg. 40, Wallingford CT 06492
  
  
 ---------------------------------------------------------------
 Warning -- This program may not be used in any manner that
 competes with the business of Gaussian, Inc. or will provide
 assistance to any competitor of Gaussian, Inc.  The licensee
 of this program is prohibited from giving any competitor of
 Gaussian, Inc. access to this program.  By using this program,
 the user acknowledges that Gaussian, Inc. is engaged in the
 business of creating and licensing software in the field of
 computational chemistry and represents and warrants to the
 licensee that it is not a competitor of Gaussian, Inc. and that
 it will not use this program in any manner prohibited above.
 ---------------------------------------------------------------
  

 Cite this work as:
 Gaussian 09, Revision D.01,
 M. J. Frisch, G. W. Trucks, H. B. Schlegel, G. E. Scuseria, 
 M. A. Robb, J. R. Cheeseman, G. Scalmani, V. Barone, B. Mennucci, 
 G. A. Petersson, H. Nakatsuji, M. Caricato, X. Li, H. P. Hratchian, 
 A. F. Izmaylov, J. Bloino, G. Zheng, J. L. Sonnenberg, M. Hada, 
 M. Ehara, K. Toyota, R. Fukuda, J. Hasegawa, M. Ishida, T. Nakajima, 
 Y. Honda, O. Kitao, H. Nakai, T. Vreven, J. A. Montgomery, Jr., 
 J. E. Peralta, F. Ogliaro, M. Bearpark, J. J. Heyd, E. Brothers, 
 K. N. Kudin, V. N. Staroverov, T. Keith, R. Kobayashi, J. Normand, 
 K. Raghavachari, A. Rendell, J. C. Burant, S. S. Iyengar, J. Tomasi, 
 M. Cossi, N. Rega, J. M. Millam, M. Klene, J. E. Knox, J. B. Cross, 
 V. Bakken, C. Adamo, J. Jaramillo, R. Gomperts, R. E. Stratmann, 
 O. Yazyev, A. J. Austin, R. Cammi, C. Pomelli, J. W. Ochterski, 
 R. L. Martin, K. Morokuma, V. G. Zakrzewski, G. A. Voth, 
 P. Salvador, J. J. Dannenberg, S. Dapprich, A. D. Daniels, 
 O. Farkas, J. B. Foresman, J. V. Ortiz, J. Cioslowski, 
 and D. J. Fox, Gaussian, Inc., Wallingford CT, 2013.
 
 ******************************************
 Gaussian 09:  ES64L-G09RevD.01 24-Apr-2013
                18-Mar-2026 
 ******************************************
 ------------------------------------------------
 #P UHF/6-31G(d) Opt GFInput Pop=Full IOP(6/80=1)
 ------------------------------------------------
 1/18=20,19=15,38=1/1,3;
 2/9=110,12=2,17=6,18=5,40=1/2;
 3/5=1,6=6,7=1,11=2,16=1,24=10,25=1,30=1,71=1,116=2/1,2,3;
 4//1;
 5/5=2,38=5/2;
 6/7=3,28=1,80=1/1;
 7//1,2,3,16;
 1/18=20,19=15/3(2);
 2/9=110/2;
 99//99;
 2/9=110/2;
 3/5=1,6=6,7=1,11=2,16=1,25=1,30=1,71=1,116=2/1,2,3;
 4/5=5,16=3,69=1/1;
 5/5=2,38=5/2;
 7//1,2,3,16;
 1/18=20,19=15/3(-5);
 2/9=110/2;
 6/7=3,19=2,28=1,80=1/1;
 99/9=1/99;
 Leave Link    1 at Wed Mar 18 13:20:52 2026, MaxMem=           0 cpu:         0.0
 (Enter /opt/g09/g09/l101.exe)


 Symbolic Z-matrix:
 Charge =  0 Multiplicity = 3
 O
 O                    1     1.21 
 
 NAtoms=      2 NQM=        2 NQMF=       0 NMMI=      0 NMMIF=      0
                NMic=       0 NMicF=      0.
                    Isotopes and Nuclear Properties:
 (Nuclear quadrupole moments (NQMom) in fm**2, nuclear magnetic moments (NMagM)
  in nuclear magnetons)

  Atom         1           2
 IAtWgt=          16          16
 AtmWgt=  15.9949146  15.9949146
 NucSpn=           0           0
 AtZEff=   0.0000000   0.0000000
 NQMom=    0.0000000   0.0000000
 NMagM=    0.0000000   0.0000000
 AtZNuc=   8.0000000   8.0000000
 Leave Link  101 at Wed Mar 18 13:20:52 2026, MaxMem=    33554432 cpu:         0.0
 (Enter /opt/g09/g09/l103.exe)

 GradGradGradGradGradGradGradGradGradGradGradGradGradGradGradGradGradGrad
 Berny optimization.
 Initialization pass.
                           ----------------------------
                           !    Initial Parameters    !
                           ! (Angstroms and Degrees)  !
 --------------------------                            --------------------------
 ! Name  Definition              Value          Derivative Info.                !
 --------------------------------------------------------------------------------
 ! R1    R(1,2)                  1.21           estimate D2E/DX2                !
 --------------------------------------------------------------------------------
 Trust Radius=3.00D-01 FncErr=1.00D-07 GrdErr=1.00D-07
 Number of steps in this run=     20 maximum allowed number of steps=    100.
 GradGradGradGradGradGradGradGradGradGradGradGradGradGradGradGradGradGrad

 Leave Link  103 at Wed Mar 18 13:20:52 2026, MaxMem=    33554432 cpu:         0.0
 (Enter /opt/g09/g09/l202.exe)
                          Input orientation:                          
 ---------------------------------------------------------------------
 Center     Atomic      Atomic             Coordinates (Angstroms)
 Number     Number       Type             X           Y           Z
 ---------------------------------------------------------------------
      1          8           0        0.000000    0.000000    0.000000
      2          8           0        0.000000    0.000000    1.210000
 ---------------------------------------------------------------------
 Stoichiometry    O2(3)
 Framework group  D*H[C*(O.O)]
 Deg. of freedom     1
 Full point group                 D*H     NOp   8
 Largest Abelian subgroup         D2H     NOp   8
 Largest concise Abelian subgroup C2      NOp   2
                         Standard orientation:                         
 ---------------------------------------------------------------------
 Center     Atomic      Atomic             Coordinates (Angstroms)
 Number     Number       Type             X           Y           Z
 ---------------------------------------------------------------------
      1          8           0        0.000000    0.000000    0.605000
      2          8           0        0.000000    0.000000   -0.605000
 ---------------------------------------------------------------------
 Rotational constants (GHZ):      0.0000000     43.1613007     43.1613007
 Leave Link  202 at Wed Mar 18 13:20:52 2026, MaxMem=    33554432 cpu:         0.0
 (Enter /opt/g09/g09/l301.exe)
 Standard basis: 6-31G(d) (6D, 7F)
 Ernie: Thresh=  0.10000D-02 Tol=  0.10000D-05 Strict=F.
 AO basis set in the form of general basis input (Overlap normalization):
      1 0
 S   6 1.00       0.000000000000
      0.5484671660D+04  0.1831074430D-02
      0.8252349460D+03  0.1395017220D-01
      0.1880469580D+03  0.6844507810D-01
      0.5296450000D+02  0.2327143360D+00
      0.1689757040D+02  0.4701928980D+00
      0.5799635340D+01  0.3585208530D+00
 SP   3 1.00       0.000000000000
      0.1553961625D+02 -0.1107775495D+00  0.7087426823D-01
      0.3599933586D+01 -0.1480262627D+00  0.3397528391D+00
      0.1013761750D+01  0.1130767015D+01  0.7271585773D+00
 SP   1 1.00       0.000000000000
      0.2700058226D+00  0.1000000000D+01  0.1000000000D+01
 D   1 1.00       0.000000000000
      0.8000000000D+00  0.1000000000D+01
 ****
      2 0
 S   6 1.00       0.000000000000
      0.5484671660D+04  0.1831074430D-02
      0.8252349460D+03  0.1395017220D-01
      0.1880469580D+03  0.6844507810D-01
      0.5296450000D+02  0.2327143360D+00
      0.1689757040D+02  0.4701928980D+00
      0.5799635340D+01  0.3585208530D+00
 SP   3 1.00       0.000000000000
      0.1553961625D+02 -0.1107775495D+00  0.7087426823D-01
      0.3599933586D+01 -0.1480262627D+00  0.3397528391D+00
      0.1013761750D+01  0.1130767015D+01  0.7271585773D+00
 SP   1 1.00       0.000000000000
      0.2700058226D+00  0.1000000000D+01  0.1000000000D+01
 D   1 1.00       0.000000000000
      0.8000000000D+00  0.1000000000D+01
 ****

 There are     8 symmetry adapted cartesian basis functions of AG  symmetry.
 There are     1 symmetry adapted cartesian basis functions of B1G symmetry.
 There are     3 symmetry adapted cartesian basis functions of B2G symmetry.
 There are     3 symmetry adapted cartesian basis functions of B3G symmetry.
 There are     1 symmetry adapted cartesian basis functions of AU  symmetry.
 There are     8 symmetry adapted cartesian basis functions of B1U symmetry.
 There are     3 symmetry adapted cartesian basis functions of B2U symmetry.
 There are     3 symmetry adapted cartesian basis functions of B3U symmetry.
 There are     8 symmetry adapted basis functions of AG  symmetry.
 There are     1 symmetry adapted basis functions of B1G symmetry.
 There are     3 symmetry adapted basis functions of B2G symmetry.
 There are     3 symmetry adapted basis functions of B3G symmetry.
 There are     1 symmetry adapted basis functions of AU  symmetry.
 There are     8 symmetry adapted basis functions of B1U symmetry.
 There are     3 symmetry adapted basis functions of B2U symmetry.
 There are     3 symmetry adapted basis functions of B3U symmetry.
    30 basis functions,    56 primitive gaussians,    30 cartesian basis functions
     9 alpha electrons        7 beta electrons
       nuclear repulsion energy        27.9895383056 Hartrees.
 IExCor=    0 DFT=F Ex=HF Corr=None ExCW=0 ScaHFX=  1.000000
 ScaDFX=  1.000000  1.000000  1.000000  1.000000 ScalE2=  1.000000  1.000000
 IRadAn=      0 IRanWt=     -1 IRanGd=            0 ICorTp=0 IEmpDi=  4
 NAtoms=    2 NActive=    2 NUniq=    1 SFac= 4.00D+00 NAtFMM=   60 NAOKFM=F Big=F
 Integral buffers will be    131072 words long.
 Raffenetti 2 integral format.
 Two-electron integral symmetry is turned on.
 Leave Link  301 at Wed Mar 18 13:20:53 2026, MaxMem=    33554432 cpu:         0.0
 (Enter /opt/g09/g09/l302.exe)
 NPDir=0 NMtPBC=     1 NCelOv=     1 NCel=       1 NClECP=     1 NCelD=      1
         NCelK=      1 NCelE2=     1 NClLst=     1 CellRange=     0.0.
 One-electron integrals computed using PRISM.
 One-electron integral symmetry used in STVInt
 NBasis=    30 RedAO= T EigKep=  1.00D-02  NBF=     8     1     3     3     1     8     3     3
 NBsUse=    30 1.00D-06 EigRej= -1.00D+00 NBFU=     8     1     3     3     1     8     3     3
 Leave Link  302 at Wed Mar 18 13:20:53 2026, MaxMem=    33554432 cpu:         0.0
 (Enter /opt/g09/g09/l303.exe)
 DipDrv:  MaxL=1.
 Leave Link  303 at Wed Mar 18 13:20:53 2026, MaxMem=    33554432 cpu:         0.0
 (Enter /opt/g09/g09/l401.exe)
 ExpMin= 2.70D-01 ExpMax= 5.48D+03 ExpMxC= 8.25D+02 IAcc=1 IRadAn=         1 AccDes= 0.00D+00
 Harris functional with IExCor=  205 and IRadAn=       1 diagonalized for initial guess.
 HarFok:  IExCor=  205 AccDes= 0.00D+00 IRadAn=         1 IDoV= 1 UseB2=F ITyADJ=14
 ICtDFT=  3500011 ScaDFX=  1.000000  1.000000  1.000000  1.000000
 FoFCou: FMM=F IPFlag=           0 FMFlag=      100000 FMFlg1=           0
         NFxFlg=           0 DoJE=T BraDBF=F KetDBF=T FulRan=T
         wScrn=  0.000000 ICntrl=     500 IOpCl=  0 I1Cent=   200000004 NGrid=           0
         NMat0=    1 NMatS0=      1 NMatT0=    0 NMatD0=    1 NMtDS0=    0 NMtDT0=    0
 Petite list used in FoFCou.
 Harris En= -149.541053460310    
 JPrj=0 DoOrth=F DoCkMO=F.
 Initial guess orbital symmetries:
 Alpha Orbitals:
       Occupied  (SGU) (SGG) (SGG) (SGU) (SGG) (PIU) (PIU) (PIG)
                 (PIG)
       Virtual   (SGU) (SGG) (SGU) (PIU) (PIU) (SGG) (PIG) (PIG)
                 (SGU) (PIU) (PIU) (DLTG) (DLTG) (DLTU) (DLTU)
                 (SGG) (PIG) (PIG) (SGU) (SGG) (SGU)
 Beta  Orbitals:
       Occupied  (SGU) (SGG) (SGG) (SGU) (SGG) (PIU) (PIU)
       Virtual   (PIG) (PIG) (SGU) (SGG) (SGU) (PIU) (PIU) (SGG)
                 (PIG) (PIG) (SGU) (PIU) (PIU) (DLTG) (DLTG) (DLTU)
                 (DLTU) (SGG) (PIG) (PIG) (SGU) (SGG) (SGU)
 The electronic state of the initial guess is 3-SGG.
 Initial guess <Sx>= 0.0000 <Sy>= 0.0000 <Sz>= 1.0000 <S**2>= 2.0000 S= 1.0000
 Leave Link  401 at Wed Mar 18 13:20:53 2026, MaxMem=    33554432 cpu:         0.0
 (Enter /opt/g09/g09/l502.exe)
 UHF open shell SCF:
 Using DIIS extrapolation, IDIIS=  1040.
 Integral symmetry usage will be decided dynamically.
 Keep R1 and R2 ints in memory in symmetry-blocked form, NReq=959694.
 IVT=       21766 IEndB=       21766 NGot=    33554432 MDV=    33499153
 LenX=    33499153 LenY=    33497812
 Requested convergence on RMS density matrix=1.00D-08 within 128 cycles.
 Requested convergence on MAX density matrix=1.00D-06.
 Requested convergence on             energy=1.00D-06.
 No special actions if energy rises.
 FoFCou: FMM=F IPFlag=           0 FMFlag=           0 FMFlg1=           0
         NFxFlg=           0 DoJE=F BraDBF=F KetDBF=F FulRan=T
         wScrn=  0.000000 ICntrl=     600 IOpCl=  0 I1Cent=           0 NGrid=           0
         NMat0=    1 NMatS0=    465 NMatT0=    0 NMatD0=    1 NMtDS0=    0 NMtDT0=    0
 Petite list used in FoFCou.

 Cycle   1  Pass 1  IDiag  1:
 E= -149.576723060275    
 DIIS: error= 5.92D-02 at cycle   1 NSaved=   1.
 NSaved= 1 IEnMin= 1 EnMin= -149.576723060275     IErMin= 1 ErrMin= 5.92D-02
 ErrMax= 5.92D-02  0.00D+00 EMaxC= 1.00D-01 BMatC= 3.86D-01 BMatP= 3.86D-01
 IDIUse=3 WtCom= 4.08D-01 WtEn= 5.92D-01
 Coeff-Com:  0.100D+01
 Coeff-En:   0.100D+01
 Coeff:      0.100D+01
 Gap=     0.967 Goal=   None    Shift=    0.000
 Gap=     0.694 Goal=   None    Shift=    0.000
 GapD=    0.694 DampG=2.000 DampE=0.500 DampFc=1.0000 IDamp=-1.
 RMSDP=4.06D-03 MaxDP=2.93D-02              OVMax= 4.09D-02

 Cycle   2  Pass 1  IDiag  1:
 E= -149.610451846789     Delta-E=       -0.033728786514 Rises=F Damp=F
 DIIS: error= 1.38D-02 at cycle   2 NSaved=   2.
 NSaved= 2 IEnMin= 2 EnMin= -149.610451846789     IErMin= 2 ErrMin= 1.38D-02
 ErrMax= 1.38D-02  0.00D+00 EMaxC= 1.00D-01 BMatC= 9.89D-03 BMatP= 3.86D-01
 IDIUse=3 WtCom= 8.62D-01 WtEn= 1.38D-01
 Coeff-Com: -0.697D-01 0.107D+01
 Coeff-En:   0.000D+00 0.100D+01
 Coeff:     -0.600D-01 0.106D+01
 Gap=     0.973 Goal=   None    Shift=    0.000
 Gap=     0.687 Goal=   None    Shift=    0.000
 RMSDP=1.45D-03 MaxDP=1.23D-02 DE=-3.37D-02 OVMax= 1.67D-02

 Cycle   3  Pass 1  IDiag  1:
 E= -149.613738532752     Delta-E=       -0.003286685963 Rises=F Damp=F
 DIIS: error= 4.94D-03 at cycle   3 NSaved=   3.
 NSaved= 3 IEnMin= 3 EnMin= -149.613738532752     IErMin= 3 ErrMin= 4.94D-03
 ErrMax= 4.94D-03  0.00D+00 EMaxC= 1.00D-01 BMatC= 1.41D-03 BMatP= 9.89D-03
 IDIUse=3 WtCom= 9.51D-01 WtEn= 4.94D-02
 Coeff-Com:  0.743D-02-0.440D+00 0.143D+01
 Coeff-En:   0.000D+00 0.000D+00 0.100D+01
 Coeff:      0.707D-02-0.418D+00 0.141D+01
 Gap=     0.978 Goal=   None    Shift=    0.000
 Gap=     0.689 Goal=   None    Shift=    0.000
 RMSDP=8.31D-04 MaxDP=8.07D-03 DE=-3.29D-03 OVMax= 8.03D-03

 Cycle   4  Pass 1  IDiag  1:
 E= -149.614365363230     Delta-E=       -0.000626830479 Rises=F Damp=F
 DIIS: error= 1.10D-03 at cycle   4 NSaved=   4.
 NSaved= 4 IEnMin= 4 EnMin= -149.614365363230     IErMin= 4 ErrMin= 1.10D-03
 ErrMax= 1.10D-03  0.00D+00 EMaxC= 1.00D-01 BMatC= 8.02D-05 BMatP= 1.41D-03
 IDIUse=3 WtCom= 9.89D-01 WtEn= 1.10D-02
 Coeff-Com:  0.531D-02-0.404D-01-0.152D+00 0.119D+01
 Coeff-En:   0.000D+00 0.000D+00 0.000D+00 0.100D+01
 Coeff:      0.525D-02-0.400D-01-0.151D+00 0.119D+01
 Gap=     0.979 Goal=   None    Shift=    0.000
 Gap=     0.688 Goal=   None    Shift=    0.000
 RMSDP=2.21D-04 MaxDP=2.23D-03 DE=-6.27D-04 OVMax= 2.36D-03

 Cycle   5  Pass 1  IDiag  1:
 E= -149.614400668777     Delta-E=       -0.000035305546 Rises=F Damp=F
 DIIS: error= 2.04D-04 at cycle   5 NSaved=   5.
 NSaved= 5 IEnMin= 5 EnMin= -149.614400668777     IErMin= 5 ErrMin= 2.04D-04
 ErrMax= 2.04D-04  0.00D+00 EMaxC= 1.00D-01 BMatC= 2.71D-06 BMatP= 8.02D-05
 IDIUse=3 WtCom= 9.98D-01 WtEn= 2.04D-03
 Coeff-Com: -0.748D-03 0.195D-01-0.508D-01-0.626D-01 0.109D+01
 Coeff-En:   0.000D+00 0.000D+00 0.000D+00 0.000D+00 0.100D+01
 Coeff:     -0.747D-03 0.195D-01-0.507D-01-0.624D-01 0.109D+01
 Gap=     0.979 Goal=   None    Shift=    0.000
 Gap=     0.688 Goal=   None    Shift=    0.000
 RMSDP=3.68D-05 MaxDP=3.78D-04 DE=-3.53D-05 OVMax= 3.40D-04

 Cycle   6  Pass 1  IDiag  1:
 E= -149.614401601480     Delta-E=       -0.000000932703 Rises=F Damp=F
 DIIS: error= 5.67D-05 at cycle   6 NSaved=   6.
 NSaved= 6 IEnMin= 6 EnMin= -149.614401601480     IErMin= 6 ErrMin= 5.67D-05
 ErrMax= 5.67D-05  0.00D+00 EMaxC= 1.00D-01 BMatC= 1.31D-07 BMatP= 2.71D-06
 IDIUse=1 WtCom= 1.00D+00 WtEn= 0.00D+00
 Coeff-Com: -0.259D-03 0.419D-02 0.371D-02-0.748D-01 0.739D-01 0.993D+00
 Coeff:     -0.259D-03 0.419D-02 0.371D-02-0.748D-01 0.739D-01 0.993D+00
 Gap=     0.979 Goal=   None    Shift=    0.000
 Gap=     0.688 Goal=   None    Shift=    0.000
 RMSDP=6.86D-06 MaxDP=8.18D-05 DE=-9.33D-07 OVMax= 8.47D-05

 Cycle   7  Pass 1  IDiag  1:
 E= -149.614401635841     Delta-E=       -0.000000034362 Rises=F Damp=F
 DIIS: error= 7.39D-06 at cycle   7 NSaved=   7.
 NSaved= 7 IEnMin= 7 EnMin= -149.614401635841     IErMin= 7 ErrMin= 7.39D-06
 ErrMax= 7.39D-06  0.00D+00 EMaxC= 1.00D-01 BMatC= 1.67D-09 BMatP= 1.31D-07
 IDIUse=1 WtCom= 1.00D+00 WtEn= 0.00D+00
 Coeff-Com:  0.776D-04-0.144D-02-0.646D-03 0.234D-01-0.364D-01-0.297D+00
 Coeff-Com:  0.131D+01
 Coeff:      0.776D-04-0.144D-02-0.646D-03 0.234D-01-0.364D-01-0.297D+00
 Coeff:      0.131D+01
 Gap=     0.979 Goal=   None    Shift=    0.000
 Gap=     0.688 Goal=   None    Shift=    0.000
 RMSDP=1.18D-06 MaxDP=1.42D-05 DE=-3.44D-08 OVMax= 1.16D-05

 Cycle   8  Pass 1  IDiag  1:
 E= -149.614401636397     Delta-E=       -0.000000000556 Rises=F Damp=F
 DIIS: error= 1.09D-06 at cycle   8 NSaved=   8.
 NSaved= 8 IEnMin= 8 EnMin= -149.614401636397     IErMin= 8 ErrMin= 1.09D-06
 ErrMax= 1.09D-06  0.00D+00 EMaxC= 1.00D-01 BMatC= 3.70D-11 BMatP= 1.67D-09
 IDIUse=1 WtCom= 1.00D+00 WtEn= 0.00D+00
 Coeff-Com: -0.240D-04 0.463D-03 0.192D-03-0.746D-02 0.119D-01 0.961D-01
 Coeff-Com: -0.484D+00 0.138D+01
 Coeff:     -0.240D-04 0.463D-03 0.192D-03-0.746D-02 0.119D-01 0.961D-01
 Coeff:     -0.484D+00 0.138D+01
 Gap=     0.979 Goal=   None    Shift=    0.000
 Gap=     0.688 Goal=   None    Shift=    0.000
 RMSDP=1.54D-07 MaxDP=1.29D-06 DE=-5.56D-10 OVMax= 1.72D-06

 Cycle   9  Pass 1  IDiag  1:
 E= -149.614401636412     Delta-E=       -0.000000000015 Rises=F Damp=F
 DIIS: error= 1.82D-07 at cycle   9 NSaved=   9.
 NSaved= 9 IEnMin= 9 EnMin= -149.614401636412     IErMin= 9 ErrMin= 1.82D-07
 ErrMax= 1.82D-07  0.00D+00 EMaxC= 1.00D-01 BMatC= 1.73D-12 BMatP= 3.70D-11
 IDIUse=1 WtCom= 1.00D+00 WtEn= 0.00D+00
 Coeff-Com:  0.535D-05-0.109D-03-0.271D-04 0.165D-02-0.261D-02-0.221D-01
 Coeff-Com:  0.119D+00-0.495D+00 0.140D+01
 Coeff:      0.535D-05-0.109D-03-0.271D-04 0.165D-02-0.261D-02-0.221D-01
 Coeff:      0.119D+00-0.495D+00 0.140D+01
 Gap=     0.979 Goal=   None    Shift=    0.000
 Gap=     0.688 Goal=   None    Shift=    0.000
 RMSDP=3.65D-08 MaxDP=5.01D-07 DE=-1.51D-11 OVMax= 4.88D-07

 Cycle  10  Pass 1  IDiag  1:
 E= -149.614401636413     Delta-E=       -0.000000000001 Rises=F Damp=F
 DIIS: error= 3.02D-08 at cycle  10 NSaved=  10.
 NSaved=10 IEnMin=10 EnMin= -149.614401636413     IErMin=10 ErrMin= 3.02D-08
 ErrMax= 3.02D-08  0.00D+00 EMaxC= 1.00D-01 BMatC= 4.34D-14 BMatP= 1.73D-12
 IDIUse=1 WtCom= 1.00D+00 WtEn= 0.00D+00
 Coeff-Com: -0.833D-06 0.185D-04 0.713D-06-0.256D-03 0.395D-03 0.365D-02
 Coeff-Com: -0.210D-01 0.110D+00-0.452D+00 0.136D+01
 Coeff:     -0.833D-06 0.185D-04 0.713D-06-0.256D-03 0.395D-03 0.365D-02
 Coeff:     -0.210D-01 0.110D+00-0.452D+00 0.136D+01
 Gap=     0.979 Goal=   None    Shift=    0.000
 Gap=     0.688 Goal=   None    Shift=    0.000
 RMSDP=6.68D-09 MaxDP=8.20D-08 DE=-6.25D-13 OVMax= 8.47D-08

 SCF Done:  E(UHF) =  -149.614401636     A.U. after   10 cycles
            NFock= 10  Conv=0.67D-08     -V/T= 2.0042
 <Sx>= 0.0000 <Sy>= 0.0000 <Sz>= 1.0000 <S**2>= 2.0348 S= 1.0116
 <L.S>= 0.000000000000E+00
 KE= 1.489887171977D+02 PE=-4.103569893235D+02 EE= 8.376433218382D+01
 Annihilation of the first spin contaminant:
 S**2 before annihilation     2.0348,   after     2.0006
 Leave Link  502 at Wed Mar 18 13:20:53 2026, MaxMem=    33554432 cpu:         0.0
 (Enter /opt/g09/g09/l601.exe)
 Copying SCF densities to generalized density rwf, IOpCl= 1 IROHF=0.

 **********************************************************************

            Population analysis using the SCF density.

 **********************************************************************

 Orbital symmetries:
 Alpha Orbitals:
       Occupied  (SGG) (SGU) (SGG) (SGU) (PIU) (PIU) (SGG) (PIG)
                 (PIG)
       Virtual   (SGU) (SGG) (SGU) (PIU) (PIU) (SGG) (PIG) (PIG)
                 (SGU) (PIU) (PIU) (DLTG) (DLTG) (DLTU) (DLTU)
                 (SGG) (PIG) (PIG) (SGU) (SGG) (SGU)
 Beta  Orbitals:
       Occupied  (SGG) (SGU) (SGG) (SGU) (SGG) (PIU) (PIU)
       Virtual   (PIG) (PIG) (SGU) (SGG) (SGU) (SGG) (PIU) (PIU)
                 (PIG) (PIG) (SGU) (PIU) (PIU) (DLTG) (DLTG) (DLTU)
                 (DLTU) (SGG) (PIG) (PIG) (SGU) (SGG) (SGU)
 The electronic state is 3-SGG.
 Alpha  occ. eigenvalues --  -20.76632 -20.76567  -1.71466  -1.20100  -0.83804
 Alpha  occ. eigenvalues --   -0.83804  -0.76074  -0.55285  -0.55285
 Alpha virt. eigenvalues --    0.42662   0.86586   0.95623   1.01987   1.01987
 Alpha virt. eigenvalues --    1.09966   1.13418   1.13418   1.50356   1.75356
 Alpha virt. eigenvalues --    1.75356   1.77426   1.77426   2.17434   2.17434
 Alpha virt. eigenvalues --    2.74991   2.86678   2.86678   3.15048   3.54297
 Alpha virt. eigenvalues --    3.87977
  Beta  occ. eigenvalues --  -20.71257 -20.71139  -1.58428  -0.99278  -0.69831
  Beta  occ. eigenvalues --   -0.57506  -0.57506
  Beta virt. eigenvalues --    0.11326   0.11326   0.50267   0.88141   0.98407
  Beta virt. eigenvalues --    1.11318   1.13264   1.13264   1.25856   1.25856
  Beta virt. eigenvalues --    1.53636   1.81791   1.81791   1.84957   1.84957
  Beta virt. eigenvalues --    2.28967   2.28967   2.80363   2.92549   2.92549
  Beta virt. eigenvalues --    3.18191   3.59687   3.92622
     Alpha Molecular Orbital Coefficients:
                           1         2         3         4         5
                       (SGG)--O  (SGU)--O  (SGG)--O  (SGU)--O  (PIU)--O
     Eigenvalues --   -20.76632 -20.76567  -1.71466  -1.20100  -0.83804
   1 1   O  1S          0.70308   0.70307  -0.15478  -0.16465   0.00000
   2        2S          0.01637   0.01555   0.38015   0.40843   0.00000
   3        2PX         0.00000   0.00000   0.00000   0.00000   0.48647
   4        2PY         0.00000   0.00000   0.00000   0.00000   0.00000
   5        2PZ        -0.00141  -0.00095  -0.14513   0.13325   0.00000
   6        3S          0.00282   0.00431   0.21385   0.44131   0.00000
   7        3PX         0.00000   0.00000   0.00000   0.00000   0.24302
   8        3PY         0.00000   0.00000   0.00000   0.00000   0.00000
   9        3PZ         0.00058  -0.00045  -0.03567   0.02554   0.00000
  10        4XX        -0.00284  -0.00314   0.00251   0.01302   0.00000
  11        4YY        -0.00284  -0.00314   0.00251   0.01302   0.00000
  12        4ZZ        -0.00362  -0.00281   0.03118  -0.02012   0.00000
  13        4XY         0.00000   0.00000   0.00000   0.00000   0.00000
  14        4XZ         0.00000   0.00000   0.00000   0.00000  -0.02578
  15        4YZ         0.00000   0.00000   0.00000   0.00000   0.00000
  16 2   O  1S          0.70308  -0.70307  -0.15478   0.16465   0.00000
  17        2S          0.01637  -0.01555   0.38015  -0.40843   0.00000
  18        2PX         0.00000   0.00000   0.00000   0.00000   0.48647
  19        2PY         0.00000   0.00000   0.00000   0.00000   0.00000
  20        2PZ         0.00141  -0.00095   0.14513   0.13325   0.00000
  21        3S          0.00282  -0.00431   0.21385  -0.44131   0.00000
  22        3PX         0.00000   0.00000   0.00000   0.00000   0.24302
  23        3PY         0.00000   0.00000   0.00000   0.00000   0.00000
  24        3PZ        -0.00058  -0.00045   0.03567   0.02554   0.00000
  25        4XX        -0.00284   0.00314   0.00251  -0.01302   0.00000
  26        4YY        -0.00284   0.00314   0.00251  -0.01302   0.00000
  27        4ZZ        -0.00362   0.00281   0.03118   0.02012   0.00000
  28        4XY         0.00000   0.00000   0.00000   0.00000   0.00000
  29        4XZ         0.00000   0.00000   0.00000   0.00000   0.02578
  30        4YZ         0.00000   0.00000   0.00000   0.00000   0.00000
                           6         7         8         9        10
                       (PIU)--O  (SGG)--O  (PIG)--O  (PIG)--O  (SGU)--V
     Eigenvalues --    -0.83804  -0.76074  -0.55285  -0.55285   0.42662
   1 1   O  1S          0.00000  -0.05093   0.00000   0.00000   0.08627
   2        2S          0.00000   0.11327   0.00000   0.00000  -0.23363
   3        2PX         0.00000   0.00000   0.54847   0.00000   0.00000
   4        2PY         0.48647   0.00000   0.00000   0.54847   0.00000
   5        2PZ         0.00000   0.47093   0.00000   0.00000   0.43685
   6        3S          0.00000   0.25458   0.00000   0.00000  -1.23329
   7        3PX         0.00000   0.00000   0.37228   0.00000   0.00000
   8        3PY         0.24302   0.00000   0.00000   0.37228   0.00000
   9        3PZ         0.00000   0.23416   0.00000   0.00000   1.24247
  10        4XX         0.00000   0.01221   0.00000   0.00000  -0.01730
  11        4YY         0.00000   0.01221   0.00000   0.00000  -0.01730
  12        4ZZ         0.00000  -0.04817   0.00000   0.00000  -0.02405
  13        4XY         0.00000   0.00000   0.00000   0.00000   0.00000
  14        4XZ         0.00000   0.00000   0.00656   0.00000   0.00000
  15        4YZ        -0.02578   0.00000   0.00000   0.00656   0.00000
  16 2   O  1S          0.00000  -0.05093   0.00000   0.00000  -0.08627
  17        2S          0.00000   0.11327   0.00000   0.00000   0.23363
  18        2PX         0.00000   0.00000  -0.54847   0.00000   0.00000
  19        2PY         0.48647   0.00000   0.00000  -0.54847   0.00000
  20        2PZ         0.00000  -0.47093   0.00000   0.00000   0.43685
  21        3S          0.00000   0.25458   0.00000   0.00000   1.23329
  22        3PX         0.00000   0.00000  -0.37228   0.00000   0.00000
  23        3PY         0.24302   0.00000   0.00000  -0.37228   0.00000
  24        3PZ         0.00000  -0.23416   0.00000   0.00000   1.24247
  25        4XX         0.00000   0.01221   0.00000   0.00000   0.01730
  26        4YY         0.00000   0.01221   0.00000   0.00000   0.01730
  27        4ZZ         0.00000  -0.04817   0.00000   0.00000   0.02405
  28        4XY         0.00000   0.00000   0.00000   0.00000   0.00000
  29        4XZ         0.00000   0.00000   0.00656   0.00000   0.00000
  30        4YZ         0.02578   0.00000   0.00000   0.00656   0.00000
                          11        12        13        14        15
                       (SGG)--V  (SGU)--V  (PIU)--V  (PIU)--V  (SGG)--V
     Eigenvalues --     0.86586   0.95623   1.01987   1.01987   1.09966
   1 1   O  1S         -0.02552  -0.02024   0.00000   0.00000   0.02039
   2        2S         -0.90939  -0.27270   0.00000   0.00000   0.04440
   3        2PX         0.00000   0.00000   0.00000  -0.64071   0.00000
   4        2PY         0.00000   0.00000  -0.64071   0.00000   0.00000
   5        2PZ        -0.10819  -0.57634   0.00000   0.00000  -0.53111
   6        3S          1.43129  -0.33170   0.00000   0.00000   0.13320
   7        3PX         0.00000   0.00000   0.00000   0.64267   0.00000
   8        3PY         0.00000   0.00000   0.64267   0.00000   0.00000
   9        3PZ         0.01629   1.25314   0.00000   0.00000   0.78990
  10        4XX        -0.28430  -0.06136   0.00000   0.00000  -0.06343
  11        4YY        -0.28430  -0.06136   0.00000   0.00000  -0.06343
  12        4ZZ        -0.35952  -0.43043   0.00000   0.00000   0.18199
  13        4XY         0.00000   0.00000   0.00000   0.00000   0.00000
  14        4XZ         0.00000   0.00000   0.00000   0.07369   0.00000
  15        4YZ         0.00000   0.00000   0.07369   0.00000   0.00000
  16 2   O  1S         -0.02552   0.02024   0.00000   0.00000   0.02039
  17        2S         -0.90939   0.27270   0.00000   0.00000   0.04440
  18        2PX         0.00000   0.00000   0.00000  -0.64071   0.00000
  19        2PY         0.00000   0.00000  -0.64071   0.00000   0.00000
  20        2PZ         0.10819  -0.57634   0.00000   0.00000   0.53111
  21        3S          1.43129   0.33170   0.00000   0.00000   0.13320
  22        3PX         0.00000   0.00000   0.00000   0.64267   0.00000
  23        3PY         0.00000   0.00000   0.64267   0.00000   0.00000
  24        3PZ        -0.01629   1.25314   0.00000   0.00000  -0.78990
  25        4XX        -0.28430   0.06136   0.00000   0.00000  -0.06343
  26        4YY        -0.28430   0.06136   0.00000   0.00000  -0.06343
  27        4ZZ        -0.35952   0.43043   0.00000   0.00000   0.18199
  28        4XY         0.00000   0.00000   0.00000   0.00000   0.00000
  29        4XZ         0.00000   0.00000   0.00000  -0.07369   0.00000
  30        4YZ         0.00000   0.00000  -0.07369   0.00000   0.00000
                          16        17        18        19        20
                       (PIG)--V  (PIG)--V  (SGU)--V  (PIU)--V  (PIU)--V
     Eigenvalues --     1.13418   1.13418   1.50356   1.75356   1.75356
   1 1   O  1S          0.00000   0.00000  -0.07545   0.00000   0.00000
   2        2S          0.00000   0.00000  -1.27787   0.00000   0.00000
   3        2PX         0.00000  -0.62105   0.00000   0.15277   0.00000
   4        2PY        -0.62105   0.00000   0.00000   0.00000   0.15277
   5        2PZ         0.00000   0.00000   0.22233   0.00000   0.00000
   6        3S          0.00000   0.00000   5.04807   0.00000   0.00000
   7        3PX         0.00000   1.08040   0.00000   0.01214   0.00000
   8        3PY         1.08040   0.00000   0.00000   0.00000   0.01214
   9        3PZ         0.00000   0.00000  -2.45743   0.00000   0.00000
  10        4XX         0.00000   0.00000  -0.36643   0.00000   0.00000
  11        4YY         0.00000   0.00000  -0.36643   0.00000   0.00000
  12        4ZZ         0.00000   0.00000  -0.22944   0.00000   0.00000
  13        4XY         0.00000   0.00000   0.00000   0.00000   0.00000
  14        4XZ         0.00000  -0.00883   0.00000   0.60478   0.00000
  15        4YZ        -0.00883   0.00000   0.00000   0.00000   0.60478
  16 2   O  1S          0.00000   0.00000   0.07545   0.00000   0.00000
  17        2S          0.00000   0.00000   1.27787   0.00000   0.00000
  18        2PX         0.00000   0.62105   0.00000   0.15277   0.00000
  19        2PY         0.62105   0.00000   0.00000   0.00000   0.15277
  20        2PZ         0.00000   0.00000   0.22233   0.00000   0.00000
  21        3S          0.00000   0.00000  -5.04807   0.00000   0.00000
  22        3PX         0.00000  -1.08040   0.00000   0.01214   0.00000
  23        3PY        -1.08040   0.00000   0.00000   0.00000   0.01214
  24        3PZ         0.00000   0.00000  -2.45743   0.00000   0.00000
  25        4XX         0.00000   0.00000   0.36643   0.00000   0.00000
  26        4YY         0.00000   0.00000   0.36643   0.00000   0.00000
  27        4ZZ         0.00000   0.00000   0.22944   0.00000   0.00000
  28        4XY         0.00000   0.00000   0.00000   0.00000   0.00000
  29        4XZ         0.00000  -0.00883   0.00000  -0.60478   0.00000
  30        4YZ        -0.00883   0.00000   0.00000   0.00000  -0.60478
                          21        22        23        24        25
                       (DLTG)--  (DLTG)--  (DLTU)--  (DLTU)--  (SGG)--V
     Eigenvalues --     1.77426   1.77426   2.17434   2.17434   2.74991
   1 1   O  1S          0.00000   0.00000   0.00000   0.00000   0.06029
   2        2S          0.00000   0.00000   0.00000   0.00000   0.45894
   3        2PX         0.00000   0.00000   0.00000   0.00000   0.00000
   4        2PY         0.00000   0.00000   0.00000   0.00000   0.00000
   5        2PZ         0.00000   0.00000   0.00000   0.00000  -0.46793
   6        3S          0.00000   0.00000   0.00000   0.00000  -0.57499
   7        3PX         0.00000   0.00000   0.00000   0.00000   0.00000
   8        3PY         0.00000   0.00000   0.00000   0.00000   0.00000
   9        3PZ         0.00000   0.00000   0.00000   0.00000   0.47120
  10        4XX         0.57773   0.00000   0.65410   0.00000   0.59666
  11        4YY        -0.57773   0.00000  -0.65410   0.00000   0.59666
  12        4ZZ         0.00000   0.00000   0.00000   0.00000  -0.51978
  13        4XY         0.00000   0.66711   0.00000   0.75529   0.00000
  14        4XZ         0.00000   0.00000   0.00000   0.00000   0.00000
  15        4YZ         0.00000   0.00000   0.00000   0.00000   0.00000
  16 2   O  1S          0.00000   0.00000   0.00000   0.00000   0.06029
  17        2S          0.00000   0.00000   0.00000   0.00000   0.45894
  18        2PX         0.00000   0.00000   0.00000   0.00000   0.00000
  19        2PY         0.00000   0.00000   0.00000   0.00000   0.00000
  20        2PZ         0.00000   0.00000   0.00000   0.00000   0.46793
  21        3S          0.00000   0.00000   0.00000   0.00000  -0.57499
  22        3PX         0.00000   0.00000   0.00000   0.00000   0.00000
  23        3PY         0.00000   0.00000   0.00000   0.00000   0.00000
  24        3PZ         0.00000   0.00000   0.00000   0.00000  -0.47120
  25        4XX         0.57773   0.00000  -0.65410   0.00000   0.59666
  26        4YY        -0.57773   0.00000   0.65410   0.00000   0.59666
  27        4ZZ         0.00000   0.00000   0.00000   0.00000  -0.51978
  28        4XY         0.00000   0.66711   0.00000  -0.75529   0.00000
  29        4XZ         0.00000   0.00000   0.00000   0.00000   0.00000
  30        4YZ         0.00000   0.00000   0.00000   0.00000   0.00000
                          26        27        28        29        30
                       (PIG)--V  (PIG)--V  (SGU)--V  (SGG)--V  (SGU)--V
     Eigenvalues --     2.86678   2.86678   3.15048   3.54297   3.87977
   1 1   O  1S          0.00000   0.00000  -0.03831  -0.28324  -0.34528
   2        2S          0.00000   0.00000  -0.34864   0.54698   0.00850
   3        2PX         0.00000  -0.01954   0.00000   0.00000   0.00000
   4        2PY        -0.01954   0.00000   0.00000   0.00000   0.00000
   5        2PZ         0.00000   0.00000  -0.58284  -0.08830   0.20377
   6        3S          0.00000   0.00000   3.27378   1.38542   4.02659
   7        3PX         0.00000  -0.49487   0.00000   0.00000   0.00000
   8        3PY        -0.49487   0.00000   0.00000   0.00000   0.00000
   9        3PZ         0.00000   0.00000  -2.13018  -0.03343  -1.15273
  10        4XX         0.00000   0.00000  -0.53141  -0.91249  -1.22478
  11        4YY         0.00000   0.00000  -0.53141  -0.91249  -1.22478
  12        4ZZ         0.00000   0.00000   1.42125  -0.87705  -1.03622
  13        4XY         0.00000   0.00000   0.00000   0.00000   0.00000
  14        4XZ         0.00000   1.01981   0.00000   0.00000   0.00000
  15        4YZ         1.01981   0.00000   0.00000   0.00000   0.00000
  16 2   O  1S          0.00000   0.00000   0.03831  -0.28324   0.34528
  17        2S          0.00000   0.00000   0.34864   0.54698  -0.00850
  18        2PX         0.00000   0.01954   0.00000   0.00000   0.00000
  19        2PY         0.01954   0.00000   0.00000   0.00000   0.00000
  20        2PZ         0.00000   0.00000  -0.58284   0.08830   0.20377
  21        3S          0.00000   0.00000  -3.27378   1.38542  -4.02659
  22        3PX         0.00000   0.49487   0.00000   0.00000   0.00000
  23        3PY         0.49487   0.00000   0.00000   0.00000   0.00000
  24        3PZ         0.00000   0.00000  -2.13018   0.03343  -1.15273
  25        4XX         0.00000   0.00000   0.53141  -0.91249   1.22478
  26        4YY         0.00000   0.00000   0.53141  -0.91249   1.22478
  27        4ZZ         0.00000   0.00000  -1.42125  -0.87705   1.03622
  28        4XY         0.00000   0.00000   0.00000   0.00000   0.00000
  29        4XZ         0.00000   1.01981   0.00000   0.00000   0.00000
  30        4YZ         1.01981   0.00000   0.00000   0.00000   0.00000
     Beta Molecular Orbital Coefficients:
                           1         2         3         4         5
                       (SGG)--O  (SGU)--O  (SGG)--O  (SGU)--O  (SGG)--O
     Eigenvalues --   -20.71257 -20.71139  -1.58428  -0.99278  -0.69831
   1 1   O  1S          0.70376   0.70382  -0.14834  -0.15630  -0.05891
   2        2S          0.01370   0.01323   0.33623   0.37123   0.11316
   3        2PX         0.00000   0.00000   0.00000   0.00000   0.00000
   4        2PY         0.00000   0.00000   0.00000   0.00000   0.00000
   5        2PZ        -0.00128  -0.00121  -0.16727   0.15689   0.45435
   6        3S          0.00193   0.00306   0.22712   0.43779   0.29567
   7        3PX         0.00000   0.00000   0.00000   0.00000   0.00000
   8        3PY         0.00000   0.00000   0.00000   0.00000   0.00000
   9        3PZ         0.00041  -0.00068  -0.05419   0.06515   0.24296
  10        4XX        -0.00237  -0.00262  -0.00667   0.00252   0.00223
  11        4YY        -0.00237  -0.00262  -0.00667   0.00252   0.00223
  12        4ZZ        -0.00232  -0.00121   0.04789   0.00252  -0.03905
  13        4XY         0.00000   0.00000   0.00000   0.00000   0.00000
  14        4XZ         0.00000   0.00000   0.00000   0.00000   0.00000
  15        4YZ         0.00000   0.00000   0.00000   0.00000   0.00000
  16 2   O  1S          0.70376  -0.70382  -0.14834   0.15630  -0.05891
  17        2S          0.01370  -0.01323   0.33623  -0.37123   0.11316
  18        2PX         0.00000   0.00000   0.00000   0.00000   0.00000
  19        2PY         0.00000   0.00000   0.00000   0.00000   0.00000
  20        2PZ         0.00128  -0.00121   0.16727   0.15689  -0.45435
  21        3S          0.00193  -0.00306   0.22712  -0.43779   0.29567
  22        3PX         0.00000   0.00000   0.00000   0.00000   0.00000
  23        3PY         0.00000   0.00000   0.00000   0.00000   0.00000
  24        3PZ        -0.00041  -0.00068   0.05419   0.06515  -0.24296
  25        4XX        -0.00237   0.00262  -0.00667  -0.00252   0.00223
  26        4YY        -0.00237   0.00262  -0.00667  -0.00252   0.00223
  27        4ZZ        -0.00232   0.00121   0.04789  -0.00252  -0.03905
  28        4XY         0.00000   0.00000   0.00000   0.00000   0.00000
  29        4XZ         0.00000   0.00000   0.00000   0.00000   0.00000
  30        4YZ         0.00000   0.00000   0.00000   0.00000   0.00000
                           6         7         8         9        10
                       (PIU)--O  (PIU)--O  (PIG)--V  (PIG)--V  (SGU)--V
     Eigenvalues --    -0.57506  -0.57506   0.11326   0.11326   0.50267
   1 1   O  1S          0.00000   0.00000   0.00000   0.00000  -0.09801
   2        2S          0.00000   0.00000   0.00000   0.00000   0.23656
   3        2PX         0.40869   0.00000   0.44858   0.00000   0.00000
   4        2PY         0.00000   0.40869   0.00000   0.44858   0.00000
   5        2PZ         0.00000   0.00000   0.00000   0.00000  -0.39412
   6        3S          0.00000   0.00000   0.00000   0.00000   1.43434
   7        3PX         0.30809   0.00000   0.52963   0.00000   0.00000
   8        3PY         0.00000   0.30809   0.00000   0.52963   0.00000
   9        3PZ         0.00000   0.00000   0.00000   0.00000  -1.37631
  10        4XX         0.00000   0.00000   0.00000   0.00000   0.01051
  11        4YY         0.00000   0.00000   0.00000   0.00000   0.01051
  12        4ZZ         0.00000   0.00000   0.00000   0.00000   0.04599
  13        4XY         0.00000   0.00000   0.00000   0.00000   0.00000
  14        4XZ        -0.04736   0.00000   0.00762   0.00000   0.00000
  15        4YZ         0.00000  -0.04736   0.00000   0.00762   0.00000
  16 2   O  1S          0.00000   0.00000   0.00000   0.00000   0.09801
  17        2S          0.00000   0.00000   0.00000   0.00000  -0.23656
  18        2PX         0.40869   0.00000  -0.44858   0.00000   0.00000
  19        2PY         0.00000   0.40869   0.00000  -0.44858   0.00000
  20        2PZ         0.00000   0.00000   0.00000   0.00000  -0.39412
  21        3S          0.00000   0.00000   0.00000   0.00000  -1.43434
  22        3PX         0.30809   0.00000  -0.52963   0.00000   0.00000
  23        3PY         0.00000   0.30809   0.00000  -0.52963   0.00000
  24        3PZ         0.00000   0.00000   0.00000   0.00000  -1.37631
  25        4XX         0.00000   0.00000   0.00000   0.00000  -0.01051
  26        4YY         0.00000   0.00000   0.00000   0.00000  -0.01051
  27        4ZZ         0.00000   0.00000   0.00000   0.00000  -0.04599
  28        4XY         0.00000   0.00000   0.00000   0.00000   0.00000
  29        4XZ         0.04736   0.00000   0.00762   0.00000   0.00000
  30        4YZ         0.00000   0.04736   0.00000   0.00762   0.00000
                          11        12        13        14        15
                       (SGG)--V  (SGU)--V  (SGG)--V  (PIU)--V  (PIU)--V
     Eigenvalues --     0.88141   0.98407   1.11318   1.13264   1.13264
   1 1   O  1S         -0.02601  -0.02570   0.01974   0.00000   0.00000
   2        2S         -0.91102  -0.25780  -0.02826   0.00000   0.00000
   3        2PX         0.00000   0.00000   0.00000   0.00000   0.67695
   4        2PY         0.00000   0.00000   0.00000   0.67695   0.00000
   5        2PZ        -0.07195  -0.59219  -0.55153   0.00000   0.00000
   6        3S          1.41770  -0.27763   0.24119   0.00000   0.00000
   7        3PX         0.00000   0.00000   0.00000   0.00000  -0.61420
   8        3PY         0.00000   0.00000   0.00000  -0.61420   0.00000
   9        3PZ        -0.04750   1.20130   0.78761   0.00000   0.00000
  10        4XX        -0.28410  -0.06142  -0.08485   0.00000   0.00000
  11        4YY        -0.28410  -0.06142  -0.08485   0.00000   0.00000
  12        4ZZ        -0.38570  -0.44060   0.14498   0.00000   0.00000
  13        4XY         0.00000   0.00000   0.00000   0.00000   0.00000
  14        4XZ         0.00000   0.00000   0.00000   0.00000  -0.11095
  15        4YZ         0.00000   0.00000   0.00000  -0.11095   0.00000
  16 2   O  1S         -0.02601   0.02570   0.01974   0.00000   0.00000
  17        2S         -0.91102   0.25780  -0.02826   0.00000   0.00000
  18        2PX         0.00000   0.00000   0.00000   0.00000   0.67695
  19        2PY         0.00000   0.00000   0.00000   0.67695   0.00000
  20        2PZ         0.07195  -0.59219   0.55153   0.00000   0.00000
  21        3S          1.41770   0.27763   0.24119   0.00000   0.00000
  22        3PX         0.00000   0.00000   0.00000   0.00000  -0.61420
  23        3PY         0.00000   0.00000   0.00000  -0.61420   0.00000
  24        3PZ         0.04750   1.20130  -0.78761   0.00000   0.00000
  25        4XX        -0.28410   0.06142  -0.08485   0.00000   0.00000
  26        4YY        -0.28410   0.06142  -0.08485   0.00000   0.00000
  27        4ZZ        -0.38570   0.44060   0.14498   0.00000   0.00000
  28        4XY         0.00000   0.00000   0.00000   0.00000   0.00000
  29        4XZ         0.00000   0.00000   0.00000   0.00000   0.11095
  30        4YZ         0.00000   0.00000   0.00000   0.11095   0.00000
                          16        17        18        19        20
                       (PIG)--V  (PIG)--V  (SGU)--V  (PIU)--V  (PIU)--V
     Eigenvalues --     1.25856   1.25856   1.53636   1.81791   1.81791
   1 1   O  1S          0.00000   0.00000  -0.07505   0.00000   0.00000
   2        2S          0.00000   0.00000  -1.28855   0.00000   0.00000
   3        2PX         0.00000  -0.69639   0.00000   0.21263   0.00000
   4        2PY        -0.69639   0.00000   0.00000   0.00000   0.21263
   5        2PZ         0.00000   0.00000   0.23531   0.00000   0.00000
   6        3S          0.00000   0.00000   5.04162   0.00000   0.00000
   7        3PX         0.00000   1.01643   0.00000  -0.00856   0.00000
   8        3PY         1.01643   0.00000   0.00000   0.00000  -0.00856
   9        3PZ         0.00000   0.00000  -2.42758   0.00000   0.00000
  10        4XX         0.00000   0.00000  -0.37904   0.00000   0.00000
  11        4YY         0.00000   0.00000  -0.37904   0.00000   0.00000
  12        4ZZ         0.00000   0.00000  -0.24318   0.00000   0.00000
  13        4XY         0.00000   0.00000   0.00000   0.00000   0.00000
  14        4XZ         0.00000  -0.01897   0.00000   0.59775   0.00000
  15        4YZ        -0.01897   0.00000   0.00000   0.00000   0.59775
  16 2   O  1S          0.00000   0.00000   0.07505   0.00000   0.00000
  17        2S          0.00000   0.00000   1.28855   0.00000   0.00000
  18        2PX         0.00000   0.69639   0.00000   0.21263   0.00000
  19        2PY         0.69639   0.00000   0.00000   0.00000   0.21263
  20        2PZ         0.00000   0.00000   0.23531   0.00000   0.00000
  21        3S          0.00000   0.00000  -5.04162   0.00000   0.00000
  22        3PX         0.00000  -1.01643   0.00000  -0.00856   0.00000
  23        3PY        -1.01643   0.00000   0.00000   0.00000  -0.00856
  24        3PZ         0.00000   0.00000  -2.42758   0.00000   0.00000
  25        4XX         0.00000   0.00000   0.37904   0.00000   0.00000
  26        4YY         0.00000   0.00000   0.37904   0.00000   0.00000
  27        4ZZ         0.00000   0.00000   0.24318   0.00000   0.00000
  28        4XY         0.00000   0.00000   0.00000   0.00000   0.00000
  29        4XZ         0.00000  -0.01897   0.00000  -0.59775   0.00000
  30        4YZ        -0.01897   0.00000   0.00000   0.00000  -0.59775
                          21        22        23        24        25
                       (DLTG)--  (DLTG)--  (DLTU)--  (DLTU)--  (SGG)--V
     Eigenvalues --     1.84957   1.84957   2.28967   2.28967   2.80363
   1 1   O  1S          0.00000   0.00000   0.00000   0.00000   0.06176
   2        2S          0.00000   0.00000   0.00000   0.00000   0.46432
   3        2PX         0.00000   0.00000   0.00000   0.00000   0.00000
   4        2PY         0.00000   0.00000   0.00000   0.00000   0.00000
   5        2PZ         0.00000   0.00000   0.00000   0.00000  -0.45922
   6        3S          0.00000   0.00000   0.00000   0.00000  -0.60100
   7        3PX         0.00000   0.00000   0.00000   0.00000   0.00000
   8        3PY         0.00000   0.00000   0.00000   0.00000   0.00000
   9        3PZ         0.00000   0.00000   0.00000   0.00000   0.46704
  10        4XX         0.57773   0.00000   0.65410   0.00000   0.61435
  11        4YY        -0.57773   0.00000  -0.65410   0.00000   0.61435
  12        4ZZ         0.00000   0.00000   0.00000   0.00000  -0.50365
  13        4XY         0.00000   0.66711   0.00000   0.75529   0.00000
  14        4XZ         0.00000   0.00000   0.00000   0.00000   0.00000
  15        4YZ         0.00000   0.00000   0.00000   0.00000   0.00000
  16 2   O  1S          0.00000   0.00000   0.00000   0.00000   0.06176
  17        2S          0.00000   0.00000   0.00000   0.00000   0.46432
  18        2PX         0.00000   0.00000   0.00000   0.00000   0.00000
  19        2PY         0.00000   0.00000   0.00000   0.00000   0.00000
  20        2PZ         0.00000   0.00000   0.00000   0.00000   0.45922
  21        3S          0.00000   0.00000   0.00000   0.00000  -0.60100
  22        3PX         0.00000   0.00000   0.00000   0.00000   0.00000
  23        3PY         0.00000   0.00000   0.00000   0.00000   0.00000
  24        3PZ         0.00000   0.00000   0.00000   0.00000  -0.46704
  25        4XX         0.57773   0.00000  -0.65410   0.00000   0.61435
  26        4YY        -0.57773   0.00000   0.65410   0.00000   0.61435
  27        4ZZ         0.00000   0.00000   0.00000   0.00000  -0.50365
  28        4XY         0.00000   0.66711   0.00000  -0.75529   0.00000
  29        4XZ         0.00000   0.00000   0.00000   0.00000   0.00000
  30        4YZ         0.00000   0.00000   0.00000   0.00000   0.00000
                          26        27        28        29        30
                       (PIG)--V  (PIG)--V  (SGU)--V  (SGG)--V  (SGU)--V
     Eigenvalues --     2.92549   2.92549   3.18191   3.59687   3.92622
   1 1   O  1S          0.00000   0.00000  -0.03564  -0.28312  -0.34449
   2        2S          0.00000   0.00000  -0.35948   0.56920   0.02431
   3        2PX         0.00000  -0.02695   0.00000   0.00000   0.00000
   4        2PY        -0.02695   0.00000   0.00000   0.00000   0.00000
   5        2PZ         0.00000   0.00000  -0.58684  -0.09339   0.20258
   6        3S          0.00000   0.00000   3.26276   1.36332   3.98126
   7        3PX         0.00000  -0.48694   0.00000   0.00000   0.00000
   8        3PY        -0.48694   0.00000   0.00000   0.00000   0.00000
   9        3PZ         0.00000   0.00000  -2.12031  -0.02802  -1.13562
  10        4XX         0.00000   0.00000  -0.53187  -0.89903  -1.22088
  11        4YY         0.00000   0.00000  -0.53187  -0.89903  -1.22088
  12        4ZZ         0.00000   0.00000   1.41883  -0.88193  -1.03157
  13        4XY         0.00000   0.00000   0.00000   0.00000   0.00000
  14        4XZ         0.00000   1.01967   0.00000   0.00000   0.00000
  15        4YZ         1.01967   0.00000   0.00000   0.00000   0.00000
  16 2   O  1S          0.00000   0.00000   0.03564  -0.28312   0.34449
  17        2S          0.00000   0.00000   0.35948   0.56920  -0.02431
  18        2PX         0.00000   0.02695   0.00000   0.00000   0.00000
  19        2PY         0.02695   0.00000   0.00000   0.00000   0.00000
  20        2PZ         0.00000   0.00000  -0.58684   0.09339   0.20258
  21        3S          0.00000   0.00000  -3.26276   1.36332  -3.98126
  22        3PX         0.00000   0.48694   0.00000   0.00000   0.00000
  23        3PY         0.48694   0.00000   0.00000   0.00000   0.00000
  24        3PZ         0.00000   0.00000  -2.12031   0.02802  -1.13562
  25        4XX         0.00000   0.00000   0.53187  -0.89903   1.22088
  26        4YY         0.00000   0.00000   0.53187  -0.89903   1.22088
  27        4ZZ         0.00000   0.00000  -1.41883  -0.88193   1.03157
  28        4XY         0.00000   0.00000   0.00000   0.00000   0.00000
  29        4XZ         0.00000   1.01967   0.00000   0.00000   0.00000
  30        4YZ         1.01967   0.00000   0.00000   0.00000   0.00000
     Alpha Density Matrix:
                           1         2         3         4         5
   1 1   O  1S          1.04228
   2        2S         -0.10942   0.32467
   3        2PX         0.00000   0.00000   0.53747
   4        2PY         0.00000   0.00000   0.00000   0.53747
   5        2PZ        -0.02512   0.05256   0.00000   0.00000   0.26060
   6        3S         -0.11372   0.29049   0.00000   0.00000   0.14765
   7        3PX         0.00000   0.00000   0.32240   0.00000   0.00000
   8        3PY         0.00000   0.00000   0.00000   0.32240   0.00000
   9        3PZ        -0.01052   0.02340   0.00000   0.00000   0.11885
  10        4XX        -0.00736   0.00756   0.00000   0.00000   0.00713
  11        4YY        -0.00736   0.00756   0.00000   0.00000   0.00713
  12        4ZZ        -0.00358  -0.00192   0.00000   0.00000  -0.02988
  13        4XY         0.00000   0.00000   0.00000   0.00000   0.00000
  14        4XZ         0.00000   0.00000  -0.00894   0.00000   0.00000
  15        4YZ         0.00000   0.00000   0.00000  -0.00894   0.00000
  16 2   O  1S         -0.00054   0.00322   0.00000   0.00000   0.02010
  17        2S          0.00322  -0.00944   0.00000   0.00000  -0.05626
  18        2PX         0.00000   0.00000  -0.06417   0.00000   0.00000
  19        2PY         0.00000   0.00000   0.00000  -0.06417   0.00000
  20        2PZ        -0.02010   0.05626   0.00000   0.00000  -0.22509
  21        3S          0.02555  -0.07013   0.00000   0.00000   0.03005
  22        3PX         0.00000   0.00000  -0.08596   0.00000   0.00000
  23        3PY         0.00000   0.00000   0.00000  -0.08596   0.00000
  24        3PZ         0.00148  -0.00255   0.00000   0.00000  -0.11204
  25        4XX         0.00135  -0.00298   0.00000   0.00000   0.00365
  26        4YY         0.00135  -0.00298   0.00000   0.00000   0.00365
  27        4ZZ        -0.00625   0.01460   0.00000   0.00000  -0.02453
  28        4XY         0.00000   0.00000   0.00000   0.00000   0.00000
  29        4XZ         0.00000   0.00000   0.01614   0.00000   0.00000
  30        4YZ         0.00000   0.00000   0.00000   0.01614   0.00000
                           6         7         8         9        10
   6        3S          0.30533
   7        3PX         0.00000   0.19765
   8        3PY         0.00000   0.00000   0.19765
   9        3PZ         0.06326   0.00000   0.00000   0.05675
  10        4XX         0.00937   0.00000   0.00000   0.00310   0.00034
  11        4YY         0.00937   0.00000   0.00000   0.00310   0.00034
  12        4ZZ        -0.01450   0.00000   0.00000  -0.01291  -0.00075
  13        4XY         0.00000   0.00000   0.00000   0.00000   0.00000
  14        4XZ         0.00000  -0.00382   0.00000   0.00000   0.00000
  15        4YZ         0.00000   0.00000  -0.00382   0.00000   0.00000
  16 2   O  1S          0.02555   0.00000   0.00000  -0.00148   0.00135
  17        2S         -0.07013   0.00000   0.00000   0.00255  -0.00298
  18        2PX         0.00000  -0.08596   0.00000   0.00000   0.00000
  19        2PY         0.00000   0.00000  -0.08596   0.00000   0.00000
  20        2PZ        -0.03005   0.00000   0.00000  -0.11204  -0.00365
  21        3S         -0.08422   0.00000   0.00000   0.04072  -0.00210
  22        3PX         0.00000  -0.07953   0.00000   0.00000   0.00000
  23        3PY         0.00000   0.00000  -0.07953   0.00000   0.00000
  24        3PZ        -0.04072   0.00000   0.00000  -0.05545  -0.00243
  25        4XX        -0.00210   0.00000   0.00000   0.00243  -0.00002
  26        4YY        -0.00210   0.00000   0.00000   0.00243  -0.00002
  27        4ZZ         0.00329   0.00000   0.00000  -0.01188  -0.00025
  28        4XY         0.00000   0.00000   0.00000   0.00000   0.00000
  29        4XZ         0.00000   0.00871   0.00000   0.00000   0.00000
  30        4YZ         0.00000   0.00000   0.00871   0.00000   0.00000
                          11        12        13        14        15
  11        4YY         0.00034
  12        4ZZ        -0.00075   0.00372
  13        4XY         0.00000   0.00000   0.00000
  14        4XZ         0.00000   0.00000   0.00000   0.00071
  15        4YZ         0.00000   0.00000   0.00000   0.00000   0.00071
  16 2   O  1S          0.00135  -0.00625   0.00000   0.00000   0.00000
  17        2S         -0.00298   0.01460   0.00000   0.00000   0.00000
  18        2PX         0.00000   0.00000   0.00000  -0.01614   0.00000
  19        2PY         0.00000   0.00000   0.00000   0.00000  -0.01614
  20        2PZ        -0.00365   0.02453   0.00000   0.00000   0.00000
  21        3S         -0.00210   0.00329   0.00000   0.00000   0.00000
  22        3PX         0.00000   0.00000   0.00000  -0.00871   0.00000
  23        3PY         0.00000   0.00000   0.00000   0.00000  -0.00871
  24        3PZ        -0.00243   0.01188   0.00000   0.00000   0.00000
  25        4XX        -0.00002  -0.00025   0.00000   0.00000   0.00000
  26        4YY        -0.00002  -0.00025   0.00000   0.00000   0.00000
  27        4ZZ        -0.00025   0.00289   0.00000   0.00000   0.00000
  28        4XY         0.00000   0.00000   0.00000   0.00000   0.00000
  29        4XZ         0.00000   0.00000   0.00000  -0.00062   0.00000
  30        4YZ         0.00000   0.00000   0.00000   0.00000  -0.00062
                          16        17        18        19        20
  16 2   O  1S          1.04228
  17        2S         -0.10942   0.32467
  18        2PX         0.00000   0.00000   0.53747
  19        2PY         0.00000   0.00000   0.00000   0.53747
  20        2PZ         0.02512  -0.05256   0.00000   0.00000   0.26060
  21        3S         -0.11372   0.29049   0.00000   0.00000  -0.14765
  22        3PX         0.00000   0.00000   0.32240   0.00000   0.00000
  23        3PY         0.00000   0.00000   0.00000   0.32240   0.00000
  24        3PZ         0.01052  -0.02340   0.00000   0.00000   0.11885
  25        4XX        -0.00736   0.00756   0.00000   0.00000  -0.00713
  26        4YY        -0.00736   0.00756   0.00000   0.00000  -0.00713
  27        4ZZ        -0.00358  -0.00192   0.00000   0.00000   0.02988
  28        4XY         0.00000   0.00000   0.00000   0.00000   0.00000
  29        4XZ         0.00000   0.00000   0.00894   0.00000   0.00000
  30        4YZ         0.00000   0.00000   0.00000   0.00894   0.00000
                          21        22        23        24        25
  21        3S          0.30533
  22        3PX         0.00000   0.19765
  23        3PY         0.00000   0.00000   0.19765
  24        3PZ        -0.06326   0.00000   0.00000   0.05675
  25        4XX         0.00937   0.00000   0.00000  -0.00310   0.00034
  26        4YY         0.00937   0.00000   0.00000  -0.00310   0.00034
  27        4ZZ        -0.01450   0.00000   0.00000   0.01291  -0.00075
  28        4XY         0.00000   0.00000   0.00000   0.00000   0.00000
  29        4XZ         0.00000   0.00382   0.00000   0.00000   0.00000
  30        4YZ         0.00000   0.00000   0.00382   0.00000   0.00000
                          26        27        28        29        30
  26        4YY         0.00034
  27        4ZZ        -0.00075   0.00372
  28        4XY         0.00000   0.00000   0.00000
  29        4XZ         0.00000   0.00000   0.00000   0.00071
  30        4YZ         0.00000   0.00000   0.00000   0.00000   0.00071
     Beta Density Matrix:
                           1         2         3         4         5
   1 1   O  1S          1.04056
   2        2S         -0.09561   0.26404
   3        2PX         0.00000   0.00000   0.16703
   4        2PY         0.00000   0.00000   0.00000   0.16703
   5        2PZ        -0.02823   0.05338   0.00000   0.00000   0.25903
   6        3S         -0.11603   0.27241   0.00000   0.00000   0.16503
   7        3PX         0.00000   0.00000   0.12591   0.00000   0.00000
   8        3PY         0.00000   0.00000   0.00000   0.12591   0.00000
   9        3PZ        -0.01665   0.03345   0.00000   0.00000   0.12967
  10        4XX        -0.00305  -0.00112   0.00000   0.00000   0.00253
  11        4YY        -0.00305  -0.00112   0.00000   0.00000   0.00253
  12        4ZZ        -0.00768   0.01257   0.00000   0.00000  -0.02535
  13        4XY         0.00000   0.00000   0.00000   0.00000   0.00000
  14        4XZ         0.00000   0.00000  -0.01936   0.00000   0.00000
  15        4YZ         0.00000   0.00000   0.00000  -0.01936   0.00000
  16 2   O  1S          0.00096   0.00181   0.00000   0.00000   0.02253
  17        2S          0.00181  -0.01194   0.00000   0.00000  -0.06307
  18        2PX         0.00000   0.00000   0.16703   0.00000   0.00000
  19        2PY         0.00000   0.00000   0.00000   0.16703   0.00000
  20        2PZ        -0.02253   0.06307   0.00000   0.00000  -0.20980
  21        3S          0.01652  -0.05272   0.00000   0.00000   0.02767
  22        3PX         0.00000   0.00000   0.12591   0.00000   0.00000
  23        3PY         0.00000   0.00000   0.00000   0.12591   0.00000
  24        3PZ        -0.00468   0.01490   0.00000   0.00000  -0.10923
  25        4XX         0.00143  -0.00292   0.00000   0.00000   0.00173
  26        4YY         0.00143  -0.00292   0.00000   0.00000   0.00173
  27        4ZZ        -0.00519   0.01073   0.00000   0.00000  -0.02615
  28        4XY         0.00000   0.00000   0.00000   0.00000   0.00000
  29        4XZ         0.00000   0.00000   0.01936   0.00000   0.00000
  30        4YZ         0.00000   0.00000   0.00000   0.01936   0.00000
                           6         7         8         9        10
   6        3S          0.33068
   7        3PX         0.00000   0.09492
   8        3PY         0.00000   0.00000   0.09492
   9        3PZ         0.08805   0.00000   0.00000   0.06621
  10        4XX         0.00024   0.00000   0.00000   0.00107   0.00007
  11        4YY         0.00024   0.00000   0.00000   0.00107   0.00007
  12        4ZZ         0.00042   0.00000   0.00000  -0.01192  -0.00039
  13        4XY         0.00000   0.00000   0.00000   0.00000   0.00000
  14        4XZ         0.00000  -0.01459   0.00000   0.00000   0.00000
  15        4YZ         0.00000   0.00000  -0.01459   0.00000   0.00000
  16 2   O  1S          0.01652   0.00000   0.00000   0.00468   0.00143
  17        2S         -0.05272   0.00000   0.00000  -0.01490  -0.00292
  18        2PX         0.00000   0.12591   0.00000   0.00000   0.00000
  19        2PY         0.00000   0.00000   0.12591   0.00000   0.00000
  20        2PZ        -0.02767   0.00000   0.00000  -0.10923  -0.00173
  21        3S         -0.05266   0.00000   0.00000   0.03101  -0.00196
  22        3PX         0.00000   0.09492   0.00000   0.00000   0.00000
  23        3PY         0.00000   0.00000   0.09492   0.00000   0.00000
  24        3PZ        -0.03101   0.00000   0.00000  -0.05772  -0.00074
  25        4XX        -0.00196   0.00000   0.00000   0.00074   0.00004
  26        4YY        -0.00196   0.00000   0.00000   0.00074   0.00004
  27        4ZZ        -0.00177   0.00000   0.00000  -0.01225  -0.00041
  28        4XY         0.00000   0.00000   0.00000   0.00000   0.00000
  29        4XZ         0.00000   0.01459   0.00000   0.00000   0.00000
  30        4YZ         0.00000   0.00000   0.01459   0.00000   0.00000
                          11        12        13        14        15
  11        4YY         0.00007
  12        4ZZ        -0.00039   0.00383
  13        4XY         0.00000   0.00000   0.00000
  14        4XZ         0.00000   0.00000   0.00000   0.00224
  15        4YZ         0.00000   0.00000   0.00000   0.00000   0.00224
  16 2   O  1S          0.00143  -0.00519   0.00000   0.00000   0.00000
  17        2S         -0.00292   0.01073   0.00000   0.00000   0.00000
  18        2PX         0.00000   0.00000   0.00000  -0.01936   0.00000
  19        2PY         0.00000   0.00000   0.00000   0.00000  -0.01936
  20        2PZ        -0.00173   0.02615   0.00000   0.00000   0.00000
  21        3S         -0.00196  -0.00177   0.00000   0.00000   0.00000
  22        3PX         0.00000   0.00000   0.00000  -0.01459   0.00000
  23        3PY         0.00000   0.00000   0.00000   0.00000  -0.01459
  24        3PZ        -0.00074   0.01225   0.00000   0.00000   0.00000
  25        4XX         0.00004  -0.00041   0.00000   0.00000   0.00000
  26        4YY         0.00004  -0.00041   0.00000   0.00000   0.00000
  27        4ZZ        -0.00041   0.00382   0.00000   0.00000   0.00000
  28        4XY         0.00000   0.00000   0.00000   0.00000   0.00000
  29        4XZ         0.00000   0.00000   0.00000  -0.00224   0.00000
  30        4YZ         0.00000   0.00000   0.00000   0.00000  -0.00224
                          16        17        18        19        20
  16 2   O  1S          1.04056
  17        2S         -0.09561   0.26404
  18        2PX         0.00000   0.00000   0.16703
  19        2PY         0.00000   0.00000   0.00000   0.16703
  20        2PZ         0.02823  -0.05338   0.00000   0.00000   0.25903
  21        3S         -0.11603   0.27241   0.00000   0.00000  -0.16503
  22        3PX         0.00000   0.00000   0.12591   0.00000   0.00000
  23        3PY         0.00000   0.00000   0.00000   0.12591   0.00000
  24        3PZ         0.01665  -0.03345   0.00000   0.00000   0.12967
  25        4XX        -0.00305  -0.00112   0.00000   0.00000  -0.00253
  26        4YY        -0.00305  -0.00112   0.00000   0.00000  -0.00253
  27        4ZZ        -0.00768   0.01257   0.00000   0.00000   0.02535
  28        4XY         0.00000   0.00000   0.00000   0.00000   0.00000
  29        4XZ         0.00000   0.00000   0.01936   0.00000   0.00000
  30        4YZ         0.00000   0.00000   0.00000   0.01936   0.00000
                          21        22        23        24        25
  21        3S          0.33068
  22        3PX         0.00000   0.09492
  23        3PY         0.00000   0.00000   0.09492
  24        3PZ        -0.08805   0.00000   0.00000   0.06621
  25        4XX         0.00024   0.00000   0.00000  -0.00107   0.00007
  26        4YY         0.00024   0.00000   0.00000  -0.00107   0.00007
  27        4ZZ         0.00042   0.00000   0.00000   0.01192  -0.00039
  28        4XY         0.00000   0.00000   0.00000   0.00000   0.00000
  29        4XZ         0.00000   0.01459   0.00000   0.00000   0.00000
  30        4YZ         0.00000   0.00000   0.01459   0.00000   0.00000
                          26        27        28        29        30
  26        4YY         0.00007
  27        4ZZ        -0.00039   0.00383
  28        4XY         0.00000   0.00000   0.00000
  29        4XZ         0.00000   0.00000   0.00000   0.00224
  30        4YZ         0.00000   0.00000   0.00000   0.00000   0.00224
    Full Mulliken population analysis:
                           1         2         3         4         5
   1 1   O  1S          2.08284
   2        2S         -0.04791   0.58871
   3        2PX         0.00000   0.00000   0.70450
   4        2PY         0.00000   0.00000   0.00000   0.70450
   5        2PZ         0.00000   0.00000   0.00000   0.00000   0.51963
   6        3S         -0.03843   0.42986   0.00000   0.00000   0.00000
   7        3PX         0.00000   0.00000   0.22484   0.00000   0.00000
   8        3PY         0.00000   0.00000   0.00000   0.22484   0.00000
   9        3PZ         0.00000   0.00000   0.00000   0.00000   0.12464
  10        4XX        -0.00035   0.00352   0.00000   0.00000   0.00000
  11        4YY        -0.00035   0.00352   0.00000   0.00000   0.00000
  12        4ZZ        -0.00038   0.00582   0.00000   0.00000   0.00000
  13        4XY         0.00000   0.00000   0.00000   0.00000   0.00000
  14        4XZ         0.00000   0.00000   0.00000   0.00000   0.00000
  15        4YZ         0.00000   0.00000   0.00000   0.00000   0.00000
  16 2   O  1S          0.00000   0.00002   0.00000   0.00000  -0.00045
  17        2S          0.00002  -0.00183   0.00000   0.00000   0.01638
  18        2PX         0.00000   0.00000   0.00436   0.00000   0.00000
  19        2PY         0.00000   0.00000   0.00000   0.00436   0.00000
  20        2PZ        -0.00045   0.01638   0.00000   0.00000   0.08596
  21        3S          0.00179  -0.03130   0.00000   0.00000  -0.01101
  22        3PX         0.00000   0.00000   0.00642   0.00000   0.00000
  23        3PY         0.00000   0.00000   0.00000   0.00642   0.00000
  24        3PZ        -0.00031   0.00582   0.00000   0.00000   0.04525
  25        4XX         0.00000  -0.00032   0.00000   0.00000  -0.00040
  26        4YY         0.00000  -0.00032   0.00000   0.00000  -0.00040
  27        4ZZ        -0.00071   0.00897   0.00000   0.00000   0.01897
  28        4XY         0.00000   0.00000   0.00000   0.00000   0.00000
  29        4XZ         0.00000   0.00000   0.00631   0.00000   0.00000
  30        4YZ         0.00000   0.00000   0.00000   0.00631   0.00000
                           6         7         8         9        10
   6        3S          0.63600
   7        3PX         0.00000   0.29257
   8        3PY         0.00000   0.00000   0.29257
   9        3PZ         0.00000   0.00000   0.00000   0.12296
  10        4XX         0.00671   0.00000   0.00000   0.00000   0.00041
  11        4YY         0.00671   0.00000   0.00000   0.00000   0.00014
  12        4ZZ        -0.00984   0.00000   0.00000   0.00000  -0.00038
  13        4XY         0.00000   0.00000   0.00000   0.00000   0.00000
  14        4XZ         0.00000   0.00000   0.00000   0.00000   0.00000
  15        4YZ         0.00000   0.00000   0.00000   0.00000   0.00000
  16 2   O  1S          0.00179   0.00000   0.00000  -0.00031   0.00000
  17        2S         -0.03130   0.00000   0.00000   0.00582  -0.00032
  18        2PX         0.00000   0.00642   0.00000   0.00000   0.00000
  19        2PY         0.00000   0.00000   0.00642   0.00000   0.00000
  20        2PZ        -0.01101   0.00000   0.00000   0.04525  -0.00040
  21        3S         -0.06758   0.00000   0.00000  -0.04207  -0.00099
  22        3PX         0.00000   0.00759   0.00000   0.00000   0.00000
  23        3PY         0.00000   0.00000   0.00759   0.00000   0.00000
  24        3PZ        -0.04207   0.00000   0.00000   0.02300  -0.00137
  25        4XX        -0.00099   0.00000   0.00000  -0.00137   0.00000
  26        4YY        -0.00099   0.00000   0.00000  -0.00137   0.00000
  27        4ZZ         0.00063   0.00000   0.00000   0.01082  -0.00014
  28        4XY         0.00000   0.00000   0.00000   0.00000   0.00000
  29        4XZ         0.00000   0.00589   0.00000   0.00000   0.00000
  30        4YZ         0.00000   0.00000   0.00589   0.00000   0.00000
                          11        12        13        14        15
  11        4YY         0.00041
  12        4ZZ        -0.00038   0.00755
  13        4XY         0.00000   0.00000   0.00000
  14        4XZ         0.00000   0.00000   0.00000   0.00295
  15        4YZ         0.00000   0.00000   0.00000   0.00000   0.00295
  16 2   O  1S          0.00000  -0.00071   0.00000   0.00000   0.00000
  17        2S         -0.00032   0.00897   0.00000   0.00000   0.00000
  18        2PX         0.00000   0.00000   0.00000   0.00631   0.00000
  19        2PY         0.00000   0.00000   0.00000   0.00000   0.00631
  20        2PZ        -0.00040   0.01897   0.00000   0.00000   0.00000
  21        3S         -0.00099   0.00063   0.00000   0.00000   0.00000
  22        3PX         0.00000   0.00000   0.00000   0.00589   0.00000
  23        3PY         0.00000   0.00000   0.00000   0.00000   0.00589
  24        3PZ        -0.00137   0.01082   0.00000   0.00000   0.00000
  25        4XX         0.00000  -0.00014   0.00000   0.00000   0.00000
  26        4YY         0.00000  -0.00014   0.00000   0.00000   0.00000
  27        4ZZ        -0.00014   0.00335   0.00000   0.00000   0.00000
  28        4XY         0.00000   0.00000   0.00000   0.00000   0.00000
  29        4XZ         0.00000   0.00000   0.00000   0.00113   0.00000
  30        4YZ         0.00000   0.00000   0.00000   0.00000   0.00113
                          16        17        18        19        20
  16 2   O  1S          2.08284
  17        2S         -0.04791   0.58871
  18        2PX         0.00000   0.00000   0.70450
  19        2PY         0.00000   0.00000   0.00000   0.70450
  20        2PZ         0.00000   0.00000   0.00000   0.00000   0.51963
  21        3S         -0.03843   0.42986   0.00000   0.00000   0.00000
  22        3PX         0.00000   0.00000   0.22484   0.00000   0.00000
  23        3PY         0.00000   0.00000   0.00000   0.22484   0.00000
  24        3PZ         0.00000   0.00000   0.00000   0.00000   0.12464
  25        4XX        -0.00035   0.00352   0.00000   0.00000   0.00000
  26        4YY        -0.00035   0.00352   0.00000   0.00000   0.00000
  27        4ZZ        -0.00038   0.00582   0.00000   0.00000   0.00000
  28        4XY         0.00000   0.00000   0.00000   0.00000   0.00000
  29        4XZ         0.00000   0.00000   0.00000   0.00000   0.00000
  30        4YZ         0.00000   0.00000   0.00000   0.00000   0.00000
                          21        22        23        24        25
  21        3S          0.63600
  22        3PX         0.00000   0.29257
  23        3PY         0.00000   0.00000   0.29257
  24        3PZ         0.00000   0.00000   0.00000   0.12296
  25        4XX         0.00671   0.00000   0.00000   0.00000   0.00041
  26        4YY         0.00671   0.00000   0.00000   0.00000   0.00014
  27        4ZZ        -0.00984   0.00000   0.00000   0.00000  -0.00038
  28        4XY         0.00000   0.00000   0.00000   0.00000   0.00000
  29        4XZ         0.00000   0.00000   0.00000   0.00000   0.00000
  30        4YZ         0.00000   0.00000   0.00000   0.00000   0.00000
                          26        27        28        29        30
  26        4YY         0.00041
  27        4ZZ        -0.00038   0.00755
  28        4XY         0.00000   0.00000   0.00000
  29        4XZ         0.00000   0.00000   0.00000   0.00295
  30        4YZ         0.00000   0.00000   0.00000   0.00000   0.00295
     Gross orbital populations:
                         Total     Alpha     Beta      Spin
   1 1   O  1S          1.99577   0.99773   0.99804  -0.00031
   2        2S          0.98094   0.52085   0.46009   0.06076
   3        2PX         0.94642   0.68551   0.26092   0.42459
   4        2PY         0.94642   0.68551   0.26092   0.42459
   5        2PZ         0.79857   0.39803   0.40055  -0.00252
   6        3S          0.87951   0.42347   0.45604  -0.03257
   7        3PX         0.53730   0.30847   0.22883   0.07964
   8        3PY         0.53730   0.30847   0.22883   0.07964
   9        3PZ         0.28738   0.12883   0.15855  -0.02972
  10        4XX         0.00684   0.00859  -0.00175   0.01034
  11        4YY         0.00684   0.00859  -0.00175   0.01034
  12        4ZZ         0.04415   0.01391   0.03024  -0.01633
  13        4XY         0.00000   0.00000   0.00000   0.00000
  14        4XZ         0.01627   0.00602   0.01025  -0.00423
  15        4YZ         0.01627   0.00602   0.01025  -0.00423
  16 2   O  1S          1.99577   0.99773   0.99804  -0.00031
  17        2S          0.98094   0.52085   0.46009   0.06076
  18        2PX         0.94642   0.68551   0.26092   0.42459
  19        2PY         0.94642   0.68551   0.26092   0.42459
  20        2PZ         0.79857   0.39803   0.40055  -0.00252
  21        3S          0.87951   0.42347   0.45604  -0.03257
  22        3PX         0.53730   0.30847   0.22883   0.07964
  23        3PY         0.53730   0.30847   0.22883   0.07964
  24        3PZ         0.28738   0.12883   0.15855  -0.02972
  25        4XX         0.00684   0.00859  -0.00175   0.01034
  26        4YY         0.00684   0.00859  -0.00175   0.01034
  27        4ZZ         0.04415   0.01391   0.03024  -0.01633
  28        4XY         0.00000   0.00000   0.00000   0.00000
  29        4XZ         0.01627   0.00602   0.01025  -0.00423
  30        4YZ         0.01627   0.00602   0.01025  -0.00423
          Condensed to atoms (all electrons):
               1          2
     1  O    7.823732   0.176268
     2  O    0.176268   7.823732
          Atomic-Atomic Spin Densities.
               1          2
     1  O    1.385303  -0.385303
     2  O   -0.385303   1.385303
 Mulliken charges and spin densities:
               1          2
     1  O    0.000000   1.000000
     2  O    0.000000   1.000000
 Sum of Mulliken charges =   0.00000   2.00000
 Mulliken charges and spin densities with hydrogens summed into heavy atoms:
               1          2
     1  O    0.000000   1.000000
     2  O    0.000000   1.000000
 Atomic Valencies and Mayer Atomic Bond Orders:
               1          2
     1  O    1.408460   1.408460
     2  O    1.408460   1.408460
 Lowdin Atomic Charges:
               1
     1  O    0.000000
     2  O    0.000000
 Sum of Lowdin charges  =   0.00000
 Lowdin atomic charges with hydrogens summed into heavy atoms:
               1
     1  O    0.000000
     2  O    0.000000
 Sum of Lowdin charges  =   0.00000
 Dipole moment from Lowdin charges (Debye):
    X=     0.0000    Y=     0.0000    Z=     0.0000  Tot=     0.0000
 Electronic spatial extent (au):  <R**2>=             43.3414
 Charge=              0.0000 electrons
 Dipole moment (field-independent basis, Debye):
    X=              0.0000    Y=              0.0000    Z=              0.0000  Tot=              0.0000
 Quadrupole moment (field-independent basis, Debye-Ang):
   XX=             -9.9199   YY=             -9.9199   ZZ=            -10.3264
   XY=              0.0000   XZ=              0.0000   YZ=              0.0000
 Traceless Quadrupole moment (field-independent basis, Debye-Ang):
   XX=              0.1355   YY=              0.1355   ZZ=             -0.2710
   XY=              0.0000   XZ=              0.0000   YZ=              0.0000
 Octapole moment (field-independent basis, Debye-Ang**2):
  XXX=              0.0000  YYY=              0.0000  ZZZ=              0.0000  XYY=              0.0000
  XXY=              0.0000  XXZ=              0.0000  XZZ=              0.0000  YZZ=              0.0000
  YYZ=              0.0000  XYZ=              0.0000
 Hexadecapole moment (field-independent basis, Debye-Ang**3):
 XXXX=             -6.5535 YYYY=             -6.5535 ZZZZ=            -27.8963 XXXY=              0.0000
 XXXZ=              0.0000 YYYX=              0.0000 YYYZ=              0.0000 ZZZX=              0.0000
 ZZZY=              0.0000 XXYY=             -2.1845 XXZZ=             -5.9398 YYZZ=             -5.9398
 XXYZ=              0.0000 YYXZ=              0.0000 ZZXY=              0.0000
 N-N= 2.798953830559D+01 E-N=-4.103569894477D+02  KE= 1.489887171977D+02
 Symmetry AG   KE= 6.925277552810D+01
 Symmetry B1G  KE= 1.814116976061D-34
 Symmetry B2G  KE= 3.064854985886D+00
 Symmetry B3G  KE= 3.064854985886D+00
 Symmetry AU   KE= 4.316591752810D-34
 Symmetry B1U  KE= 6.482805905744D+01
 Symmetry B2U  KE= 4.389086320195D+00
 Symmetry B3U  KE= 4.389086320195D+00
 Orbital energies and kinetic energies (alpha):
                                 1                 2
   1 (SGG)--O                -20.766324         29.117526
   2 (SGU)--O                -20.765670         29.122729
   3 (SGG)--O                 -1.714664          2.912085
   4 (SGU)--O                 -1.201005          3.394135
   5 (PIU)--O                 -0.838036          2.434408
   6 (PIU)--O                 -0.838036          2.434408
   7 (SGG)--O                 -0.760736          2.697066
   8 (PIG)--O                 -0.552849          3.064855
   9 (PIG)--O                 -0.552849          3.064855
  10 (SGU)--V                  0.426620          3.237886
  11 (SGG)--V                  0.865861          1.744020
  12 (SGU)--V                  0.956231          3.172628
  13 (PIU)--V                  1.019865          3.196206
  14 (PIU)--V                  1.019865          3.196206
  15 (SGG)--V                  1.099662          2.613487
[...]
  30        4YZ         0.00000   0.00000   0.00000   0.02042   0.00000
                          21        22        23        24        25
  21        3S          0.33365
  22        3PX         0.00000   0.08965
  23        3PY         0.00000   0.00000   0.08965
  24        3PZ        -0.09197   0.00000   0.00000   0.06354
  25        4XX         0.00049   0.00000   0.00000  -0.00118   0.00008
  26        4YY         0.00049   0.00000   0.00000  -0.00118   0.00008
  27        4ZZ        -0.00080   0.00000   0.00000   0.01157  -0.00044
  28        4XY         0.00000   0.00000   0.00000   0.00000   0.00000
  29        4XZ         0.00000   0.01486   0.00000   0.00000   0.00000
  30        4YZ         0.00000   0.00000   0.01486   0.00000   0.00000
                          26        27        28        29        30
  26        4YY         0.00008
  27        4ZZ        -0.00044   0.00385
  28        4XY         0.00000   0.00000   0.00000
  29        4XZ         0.00000   0.00000   0.00000   0.00246
  30        4YZ         0.00000   0.00000   0.00000   0.00000   0.00246
    Full Mulliken population analysis:
                           1         2         3         4         5
   1 1   O  1S          2.08242
   2        2S         -0.04737   0.58106
   3        2PX         0.00000   0.00000   0.70794
   4        2PY         0.00000   0.00000   0.00000   0.70794
   5        2PZ         0.00000   0.00000   0.00000   0.00000   0.53465
   6        3S         -0.03822   0.42663   0.00000   0.00000   0.00000
   7        3PX         0.00000   0.00000   0.22575   0.00000   0.00000
   8        3PY         0.00000   0.00000   0.00000   0.22575   0.00000
   9        3PZ         0.00000   0.00000   0.00000   0.00000   0.12316
  10        4XX        -0.00035   0.00338   0.00000   0.00000   0.00000
  11        4YY        -0.00035   0.00338   0.00000   0.00000   0.00000
  12        4ZZ        -0.00037   0.00568   0.00000   0.00000   0.00000
  13        4XY         0.00000   0.00000   0.00000   0.00000   0.00000
  14        4XZ         0.00000   0.00000   0.00000   0.00000   0.00000
  15        4YZ         0.00000   0.00000   0.00000   0.00000   0.00000
  16 2   O  1S          0.00000   0.00001   0.00000   0.00000  -0.00068
  17        2S          0.00001  -0.00167   0.00000   0.00000   0.02116
  18        2PX         0.00000   0.00000   0.00530   0.00000   0.00000
  19        2PY         0.00000   0.00000   0.00000   0.00530   0.00000
  20        2PZ        -0.00068   0.02116   0.00000   0.00000   0.09717
  21        3S          0.00201  -0.03536   0.00000   0.00000  -0.01132
  22        3PX         0.00000   0.00000   0.00473   0.00000   0.00000
  23        3PY         0.00000   0.00000   0.00000   0.00473   0.00000
  24        3PZ        -0.00048   0.00738   0.00000   0.00000   0.04161
  25        4XX         0.00000  -0.00042   0.00000   0.00000  -0.00049
  26        4YY         0.00000  -0.00042   0.00000   0.00000  -0.00049
  27        4ZZ        -0.00092   0.01030   0.00000   0.00000   0.01986
  28        4XY         0.00000   0.00000   0.00000   0.00000   0.00000
  29        4XZ         0.00000   0.00000   0.00770   0.00000   0.00000
  30        4YZ         0.00000   0.00000   0.00000   0.00770   0.00000
                           6         7         8         9        10
   6        3S          0.64944
   7        3PX         0.00000   0.29391
   8        3PY         0.00000   0.00000   0.29391
   9        3PZ         0.00000   0.00000   0.00000   0.11741
  10        4XX         0.00712   0.00000   0.00000   0.00000   0.00044
  11        4YY         0.00712   0.00000   0.00000   0.00000   0.00015
  12        4ZZ        -0.01152   0.00000   0.00000   0.00000  -0.00042
  13        4XY         0.00000   0.00000   0.00000   0.00000   0.00000
  14        4XZ         0.00000   0.00000   0.00000   0.00000   0.00000
  15        4YZ         0.00000   0.00000   0.00000   0.00000   0.00000
  16 2   O  1S          0.00201   0.00000   0.00000  -0.00048   0.00000
  17        2S         -0.03536   0.00000   0.00000   0.00738  -0.00042
  18        2PX         0.00000   0.00473   0.00000   0.00000   0.00000
  19        2PY         0.00000   0.00000   0.00473   0.00000   0.00000
  20        2PZ        -0.01132   0.00000   0.00000   0.04161  -0.00049
  21        3S         -0.07411   0.00000   0.00000  -0.04241  -0.00117
  22        3PX         0.00000  -0.00083   0.00000   0.00000   0.00000
  23        3PY         0.00000   0.00000  -0.00083   0.00000   0.00000
  24        3PZ        -0.04241   0.00000   0.00000   0.01730  -0.00146
  25        4XX        -0.00117   0.00000   0.00000  -0.00146   0.00000
  26        4YY        -0.00117   0.00000   0.00000  -0.00146   0.00000
  27        4ZZ         0.00059   0.00000   0.00000   0.01030  -0.00017
  28        4XY         0.00000   0.00000   0.00000   0.00000   0.00000
  29        4XZ         0.00000   0.00636   0.00000   0.00000   0.00000
  30        4YZ         0.00000   0.00000   0.00636   0.00000   0.00000
                          11        12        13        14        15
  11        4YY         0.00044
  12        4ZZ        -0.00042   0.00762
  13        4XY         0.00000   0.00000   0.00000
  14        4XZ         0.00000   0.00000   0.00000   0.00328
  15        4YZ         0.00000   0.00000   0.00000   0.00000   0.00328
  16 2   O  1S          0.00000  -0.00092   0.00000   0.00000   0.00000
  17        2S         -0.00042   0.01030   0.00000   0.00000   0.00000
  18        2PX         0.00000   0.00000   0.00000   0.00770   0.00000
  19        2PY         0.00000   0.00000   0.00000   0.00000   0.00770
  20        2PZ        -0.00049   0.01986   0.00000   0.00000   0.00000
  21        3S         -0.00117   0.00059   0.00000   0.00000   0.00000
  22        3PX         0.00000   0.00000   0.00000   0.00636   0.00000
  23        3PY         0.00000   0.00000   0.00000   0.00000   0.00636
  24        3PZ        -0.00146   0.01030   0.00000   0.00000   0.00000
  25        4XX         0.00000  -0.00017   0.00000   0.00000   0.00000
  26        4YY         0.00000  -0.00017   0.00000   0.00000   0.00000
  27        4ZZ        -0.00017   0.00332   0.00000   0.00000   0.00000
  28        4XY         0.00000   0.00000   0.00000   0.00000   0.00000
  29        4XZ         0.00000   0.00000   0.00000   0.00131   0.00000
  30        4YZ         0.00000   0.00000   0.00000   0.00000   0.00131
                          16        17        18        19        20
  16 2   O  1S          2.08242
  17        2S         -0.04737   0.58106
  18        2PX         0.00000   0.00000   0.70794
  19        2PY         0.00000   0.00000   0.00000   0.70794
  20        2PZ         0.00000   0.00000   0.00000   0.00000   0.53465
  21        3S         -0.03822   0.42663   0.00000   0.00000   0.00000
  22        3PX         0.00000   0.00000   0.22575   0.00000   0.00000
  23        3PY         0.00000   0.00000   0.00000   0.22575   0.00000
  24        3PZ         0.00000   0.00000   0.00000   0.00000   0.12316
  25        4XX        -0.00035   0.00338   0.00000   0.00000   0.00000
  26        4YY        -0.00035   0.00338   0.00000   0.00000   0.00000
  27        4ZZ        -0.00037   0.00568   0.00000   0.00000   0.00000
  28        4XY         0.00000   0.00000   0.00000   0.00000   0.00000
  29        4XZ         0.00000   0.00000   0.00000   0.00000   0.00000
  30        4YZ         0.00000   0.00000   0.00000   0.00000   0.00000
                          21        22        23        24        25
  21        3S          0.64944
  22        3PX         0.00000   0.29391
  23        3PY         0.00000   0.00000   0.29391
  24        3PZ         0.00000   0.00000   0.00000   0.11741
  25        4XX         0.00712   0.00000   0.00000   0.00000   0.00044
  26        4YY         0.00712   0.00000   0.00000   0.00000   0.00015
  27        4ZZ        -0.01152   0.00000   0.00000   0.00000  -0.00042
  28        4XY         0.00000   0.00000   0.00000   0.00000   0.00000
  29        4XZ         0.00000   0.00000   0.00000   0.00000   0.00000
  30        4YZ         0.00000   0.00000   0.00000   0.00000   0.00000
                          26        27        28        29        30
  26        4YY         0.00044
  27        4ZZ        -0.00042   0.00762
  28        4XY         0.00000   0.00000   0.00000
  29        4XZ         0.00000   0.00000   0.00000   0.00328
  30        4YZ         0.00000   0.00000   0.00000   0.00000   0.00328
     Gross orbital populations:
                         Total     Alpha     Beta      Spin
   1 1   O  1S          1.99572   0.99770   0.99802  -0.00032
   2        2S          0.97373   0.51679   0.45694   0.05985
   3        2PX         0.95142   0.68613   0.26530   0.42083
   4        2PY         0.95142   0.68613   0.26530   0.42083
   5        2PZ         0.82465   0.41080   0.41385  -0.00304
   6        3S          0.87764   0.42465   0.45299  -0.02833
   7        3PX         0.52993   0.30675   0.22318   0.08357
   8        3PY         0.52993   0.30675   0.22318   0.08357
   9        3PZ         0.27136   0.11960   0.15176  -0.03216
  10        4XX         0.00662   0.00840  -0.00177   0.01017
  11        4YY         0.00662   0.00840  -0.00177   0.01017
  12        4ZZ         0.04367   0.01367   0.03000  -0.01633
  13        4XY         0.00000   0.00000   0.00000   0.00000
  14        4XZ         0.01865   0.00713   0.01153  -0.00440
  15        4YZ         0.01865   0.00713   0.01153  -0.00440
  16 2   O  1S          1.99572   0.99770   0.99802  -0.00032
  17        2S          0.97373   0.51679   0.45694   0.05985
  18        2PX         0.95142   0.68613   0.26530   0.42083
  19        2PY         0.95142   0.68613   0.26530   0.42083
  20        2PZ         0.82465   0.41080   0.41385  -0.00304
  21        3S          0.87764   0.42465   0.45299  -0.02833
  22        3PX         0.52993   0.30675   0.22318   0.08357
  23        3PY         0.52993   0.30675   0.22318   0.08357
  24        3PZ         0.27136   0.11960   0.15176  -0.03216
  25        4XX         0.00662   0.00840  -0.00177   0.01017
  26        4YY         0.00662   0.00840  -0.00177   0.01017
  27        4ZZ         0.04367   0.01367   0.03000  -0.01633
  28        4XY         0.00000   0.00000   0.00000   0.00000
  29        4XZ         0.01865   0.00713   0.01153  -0.00440
  30        4YZ         0.01865   0.00713   0.01153  -0.00440
          Condensed to atoms (all electrons):
               1          2
     1  O    7.841955   0.158045
     2  O    0.158045   7.841955
          Atomic-Atomic Spin Densities.
               1          2
     1  O    1.430872  -0.430872
     2  O   -0.430872   1.430872
 Mulliken charges and spin densities:
               1          2
     1  O    0.000000   1.000000
     2  O    0.000000   1.000000
 Sum of Mulliken charges =   0.00000   2.00000
 Mulliken charges and spin densities with hydrogens summed into heavy atoms:
               1          2
     1  O    0.000000   1.000000
     2  O    0.000000   1.000000
 Atomic Valencies and Mayer Atomic Bond Orders:
               1          2
     1  O    1.390496   1.390496
     2  O    1.390496   1.390496
 Lowdin Atomic Charges:
               1
     1  O    0.000000
     2  O    0.000000
 Sum of Lowdin charges  =   0.00000
 Lowdin atomic charges with hydrogens summed into heavy atoms:
               1
     1  O    0.000000
     2  O    0.000000
 Sum of Lowdin charges  =   0.00000
 Dipole moment from Lowdin charges (Debye):
    X=     0.0000    Y=     0.0000    Z=     0.0000  Tot=     0.0000
 Electronic spatial extent (au):  <R**2>=             41.8304
 Charge=              0.0000 electrons
 Dipole moment (field-independent basis, Debye):
    X=              0.0000    Y=              0.0000    Z=              0.0000  Tot=              0.0000
 Quadrupole moment (field-independent basis, Debye-Ang):
   XX=             -9.8401   YY=             -9.8401   ZZ=            -10.3851
   XY=              0.0000   XZ=              0.0000   YZ=              0.0000
 Traceless Quadrupole moment (field-independent basis, Debye-Ang):
   XX=              0.1817   YY=              0.1817   ZZ=             -0.3634
   XY=              0.0000   XZ=              0.0000   YZ=              0.0000
 Octapole moment (field-independent basis, Debye-Ang**2):
  XXX=              0.0000  YYY=              0.0000  ZZZ=              0.0000  XYY=              0.0000
  XXY=              0.0000  XXZ=              0.0000  XZZ=              0.0000  YZZ=              0.0000
  YYZ=              0.0000  XYZ=              0.0000
 Hexadecapole moment (field-independent basis, Debye-Ang**3):
 XXXX=             -6.4602 YYYY=             -6.4602 ZZZZ=            -26.5155 XXXY=              0.0000
 XXXZ=              0.0000 YYYX=              0.0000 YYYZ=              0.0000 ZZZX=              0.0000
 ZZZY=              0.0000 XXYY=             -2.1534 XXZZ=             -5.6805 YYZZ=             -5.6805
 XXYZ=              0.0000 YYXZ=              0.0000 ZZXY=              0.0000
 N-N= 2.900292329367D+01 E-N=-4.125038648434D+02  KE= 1.491819415182D+02
 Symmetry AG   KE= 6.940440110093D+01
 Symmetry B1G  KE= 2.132174489436D-34
 Symmetry B2G  KE= 3.082240293452D+00
 Symmetry B3G  KE= 3.082240293452D+00
 Symmetry AU   KE= 5.206770220663D-34
 Symmetry B1U  KE= 6.478903536673D+01
 Symmetry B2U  KE= 4.412012231840D+00
 Symmetry B3U  KE= 4.412012231840D+00
 Orbital energies and kinetic energies (alpha):
                                 1                 2
   1 (SGG)--O                -20.758520         29.114671
   2 (SGU)--O                -20.757739         29.120090
   3 (SGG)--O                 -1.752013          2.958476
   4 (SGU)--O                 -1.185510          3.377265
   5 (PIU)--O                 -0.853598          2.434501
   6 (PIU)--O                 -0.853598          2.434501
   7 (SGG)--O                 -0.774584          2.725563
   8 (PIG)--O                 -0.535208          3.082240
   9 (PIG)--O                 -0.535208          3.082240
  10 (SGU)--V                  0.480541          3.075286
  11 (SGG)--V                  0.866054          1.736705
  12 (SGU)--V                  0.969183          3.360657
  13 (PIU)--V                  1.016708          3.143844
  14 (PIU)--V                  1.016708          3.143844
  15 (SGG)--V                  1.081134          2.560621
  16 (PIG)--V                  1.134809          3.092839
  17 (PIG)--V                  1.134809          3.092839
  18 (SGU)--V                  1.523781          2.501175
  19 (DLTG)--V                 1.758040          2.605539
  20 (DLTG)--V                 1.758040          2.605539
  21 (PIU)--V                  1.778972          2.893861
  22 (PIU)--V                  1.778972          2.893861
  23 (DLTU)--V                 2.195910          3.059141
  24 (DLTU)--V                 2.195910          3.059141
  25 (SGG)--V                  2.831284          4.467755
  26 (PIG)--V                  2.912093          3.811144
  27 (PIG)--V                  2.912093          3.811144
  28 (SGU)--V                  3.158219          5.333021
  29 (SGG)--V                  3.559257          9.248961
  30 (SGU)--V                  3.901784          9.867867
 Orbital energies and kinetic energies (beta):
                                 1                 2
   1 (SGG)--O                -20.705071         29.183649
   2 (SGU)--O                -20.703703         29.193364
   3 (SGG)--O                 -1.626777          2.790084
   4 (SGU)--O                 -0.978628          3.098317
   5 (SGG)--O                 -0.708159          2.631959
   6 (PIU)--O                 -0.595711          1.977511
   7 (PIU)--O                 -0.595711          1.977511
   8 (PIG)--V                  0.132081          2.404077
   9 (PIG)--V                  0.132081          2.404077
  10 (SGU)--V                  0.553495          2.966654
  11 (SGG)--V                  0.880594          1.731472
  12 (SGU)--V                  1.000884          3.531953
  13 (SGG)--V                  1.095522          2.691525
  14 (PIU)--V                  1.123211          3.484311
  15 (PIU)--V                  1.123211          3.484311
  16 (PIG)--V                  1.260307          3.763352
  17 (PIG)--V                  1.260307          3.763352
  18 (SGU)--V                  1.558844          2.587038
  19 (DLTG)--V                 1.831587          2.605539
  20 (DLTG)--V                 1.831587          2.605539
  21 (PIU)--V                  1.848573          3.010384
  22 (PIU)--V                  1.848573          3.010384
  23 (DLTU)--V                 2.312024          3.059141
  24 (DLTU)--V                 2.312024          3.059141
  25 (SGG)--V                  2.883033          4.441017
  26 (PIG)--V                  2.970710          3.818794
  27 (PIG)--V                  2.970710          3.818794
  28 (SGU)--V                  3.188118          5.358326
  29 (SGG)--V                  3.613919          9.343046
  30 (SGU)--V                  3.948218          9.899709
 Total kinetic energy from orbitals= 1.491819415182D+02
                          Isotropic Fermi Contact Couplings
        Atom                 a.u.       MegaHertz       Gauss      10(-4) cm-1
     1  O(17)              0.31202     -94.57144     -33.74544     -31.54564
     2  O(17)              0.31202     -94.57144     -33.74544     -31.54564
 --------------------------------------------------------
       Center         ----  Spin Dipole Couplings  ----
                      3XX-RR        3YY-RR        3ZZ-RR
 --------------------------------------------------------
     1   Atom        1.297062      1.297062     -2.594123
     2   Atom        1.297062      1.297062     -2.594123
 --------------------------------------------------------
                        XY            XZ            YZ
 --------------------------------------------------------
     1   Atom        0.000000      0.000000      0.000000
     2   Atom        0.000000      0.000000      0.000000
 --------------------------------------------------------


 ---------------------------------------------------------------------------------
              Anisotropic Spin Dipole Couplings in Principal Axis System
 ---------------------------------------------------------------------------------

       Atom             a.u.   MegaHertz   Gauss  10(-4) cm-1        Axes

              Baa    -2.5941   187.709    66.979    62.613  0.0000  0.0000  1.0000
     1 O(17)  Bbb     1.2971   -93.854   -33.490   -31.306  1.0000  0.0000  0.0000
              Bcc     1.2971   -93.854   -33.490   -31.306  0.0000  1.0000  0.0000
 
              Baa    -2.5941   187.709    66.979    62.613  0.0000  0.0000  1.0000
     2 O(17)  Bbb     1.2971   -93.854   -33.490   -31.306  0.9999 -0.0120  0.0000
              Bcc     1.2971   -93.854   -33.490   -31.306  0.0120  0.9999  0.0000
 

 ---------------------------------------------------------------------------------

 No NMR shielding tensors so no spin-rotation constants.
 Leave Link  601 at Wed Mar 18 13:20:54 2026, MaxMem=    33554432 cpu:         0.1
 (Enter /opt/g09/g09/l9999.exe)

 Test job not archived.
 1\1\GINC-KADET27\FOpt\UHF\6-31G(d)\O2(3)\MDOROHUN\18-Mar-2026\0\\#P UH
 F/6-31G(d) Opt GFInput Pop=Full IOP(6/80=1)\\\0,3\O,0.,0.,0.0211391766
 \O,0.,0.,1.1888608234\\Version=ES64L-G09RevD.01\State=3-SGG\HF=-149.61
 79082\S2=2.032409\S2-1=0.\S2A=2.000541\RMSD=4.140e-09\RMSF=5.397e-06\D
 ipole=0.,0.,0.\Quadrupole=0.1350861,0.1350861,-0.2701722,0.,0.,0.\PG=D
 *H [C*(O1.O1)]\\@


 MOM AND DAD WENT TO ALPHA CENTAURI AND ALL
 I GOT WAS THIS DUMB T-SHIRT.
 Job cpu time:       0 days  0 hours  0 minutes  1.1 seconds.
 File lengths (MBytes):  RWF=      5 Int=      0 D2E=      0 Chk=      1 Scr=      1
 Normal termination of Gaussian 09 at Wed Mar 18 13:20:54 2026.
