 Entering Gaussian System, Link 0=/opt/g09/g09/g09
 Input=INPUTS/6_311G_plus_3df.inp
 Output=INPUTS/6_311G_plus_3df.log
 Initial command:
 /opt/g09/g09/l1.exe "/tmp/Gau-10438.inp" -scrdir="/tmp/"
 Entering Link 1 = /opt/g09/g09/l1.exe PID=     10440.
  
 Copyright (c) 1988,1990,1992,1993,1995,1998,2003,2009,2013,
            Gaussian, Inc.  All Rights Reserved.
  
 This is part of the Gaussian(R) 09 program.  It is based on
 the Gaussian(R) 03 system (copyright 2003, Gaussian, Inc.),
 the Gaussian(R) 98 system (copyright 1998, Gaussian, Inc.),
 the Gaussian(R) 94 system (copyright 1995, Gaussian, Inc.),
 the Gaussian 92(TM) system (copyright 1992, Gaussian, Inc.),
 the Gaussian 90(TM) system (copyright 1990, Gaussian, Inc.),
 the Gaussian 88(TM) system (copyright 1988, Gaussian, Inc.),
 the Gaussian 86(TM) system (copyright 1986, Carnegie Mellon
 University), and the Gaussian 82(TM) system (copyright 1983,
 Carnegie Mellon University). Gaussian is a federally registered
 trademark of Gaussian, Inc.
  
 This software contains proprietary and confidential information,
 including trade secrets, belonging to Gaussian, Inc.
  
 This software is provided under written license and may be
 used, copied, transmitted, or stored only in accord with that
 written license.
  
 The following legend is applicable only to US Government
 contracts under FAR:
  
                    RESTRICTED RIGHTS LEGEND
  
 Use, reproduction and disclosure by the US Government is
 subject to restrictions as set forth in subparagraphs (a)
 and (c) of the Commercial Computer Software - Restricted
 Rights clause in FAR 52.227-19.
  
 Gaussian, Inc.
 340 Quinnipiac St., Bldg. 40, Wallingford CT 06492
  
  
 ---------------------------------------------------------------
 Warning -- This program may not be used in any manner that
 competes with the business of Gaussian, Inc. or will provide
 assistance to any competitor of Gaussian, Inc.  The licensee
 of this program is prohibited from giving any competitor of
 Gaussian, Inc. access to this program.  By using this program,
 the user acknowledges that Gaussian, Inc. is engaged in the
 business of creating and licensing software in the field of
 computational chemistry and represents and warrants to the
 licensee that it is not a competitor of Gaussian, Inc. and that
 it will not use this program in any manner prohibited above.
 ---------------------------------------------------------------
  

 Cite this work as:
 Gaussian 09, Revision D.01,
 M. J. Frisch, G. W. Trucks, H. B. Schlegel, G. E. Scuseria, 
 M. A. Robb, J. R. Cheeseman, G. Scalmani, V. Barone, B. Mennucci, 
 G. A. Petersson, H. Nakatsuji, M. Caricato, X. Li, H. P. Hratchian, 
 A. F. Izmaylov, J. Bloino, G. Zheng, J. L. Sonnenberg, M. Hada, 
 M. Ehara, K. Toyota, R. Fukuda, J. Hasegawa, M. Ishida, T. Nakajima, 
 Y. Honda, O. Kitao, H. Nakai, T. Vreven, J. A. Montgomery, Jr., 
 J. E. Peralta, F. Ogliaro, M. Bearpark, J. J. Heyd, E. Brothers, 
 K. N. Kudin, V. N. Staroverov, T. Keith, R. Kobayashi, J. Normand, 
 K. Raghavachari, A. Rendell, J. C. Burant, S. S. Iyengar, J. Tomasi, 
 M. Cossi, N. Rega, J. M. Millam, M. Klene, J. E. Knox, J. B. Cross, 
 V. Bakken, C. Adamo, J. Jaramillo, R. Gomperts, R. E. Stratmann, 
 O. Yazyev, A. J. Austin, R. Cammi, C. Pomelli, J. W. Ochterski, 
 R. L. Martin, K. Morokuma, V. G. Zakrzewski, G. A. Voth, 
 P. Salvador, J. J. Dannenberg, S. Dapprich, A. D. Daniels, 
 O. Farkas, J. B. Foresman, J. V. Ortiz, J. Cioslowski, 
 and D. J. Fox, Gaussian, Inc., Wallingford CT, 2013.
 
 ******************************************
 Gaussian 09:  ES64L-G09RevD.01 24-Apr-2013
                 8-Apr-2026 
 ******************************************
 -----------------------------------
 #p UB3LYP/6-311+G(3df) Opt Pop=Full
 -----------------------------------
 1/14=-1,18=20,19=15,26=3,38=1/1,3;
 2/9=110,12=2,17=6,18=5,40=1/2;
 3/5=4,6=6,7=16,11=2,16=1,25=1,30=1,71=1,74=-5,116=2/1,2,3;
 4//1;
 5/5=2,38=5/2;
 6/7=3,28=1/1;
 7//1,2,3,16;
 1/14=-1,18=20,19=15,26=3/3(2);
 2/9=110/2;
 99//99;
 2/9=110/2;
 3/5=4,6=6,7=16,11=2,16=1,25=1,30=1,71=1,74=-5,116=2/1,2,3;
 4/5=5,16=3,69=1/1;
 5/5=2,38=5/2;
 7//1,2,3,16;
 1/14=-1,18=20,19=15,26=3/3(-5);
 2/9=110/2;
 6/7=3,19=2,28=1/1;
 99/9=1/99;
 Leave Link    1 at Wed Apr  8 12:51:27 2026, MaxMem=           0 cpu:         0.0
 (Enter /opt/g09/g09/l101.exe)
 ----------------------------------
 PO optymalizacja baza 6-311+G(3df)
 ----------------------------------
 Symbolic Z-matrix:
 Charge =  0 Multiplicity = 2
 P                     0.        0.        0. 
 O                     0.        0.        1.5 
 
 NAtoms=      2 NQM=        2 NQMF=       0 NMMI=      0 NMMIF=      0
                NMic=       0 NMicF=      0.
                    Isotopes and Nuclear Properties:
 (Nuclear quadrupole moments (NQMom) in fm**2, nuclear magnetic moments (NMagM)
  in nuclear magnetons)

  Atom         1           2
 IAtWgt=          31          16
 AtmWgt=  30.9737634  15.9949146
 NucSpn=           1           0
 AtZEff=   0.0000000   0.0000000
 NQMom=    0.0000000   0.0000000
 NMagM=    1.1316000   0.0000000
 AtZNuc=  15.0000000   8.0000000
 Leave Link  101 at Wed Apr  8 12:51:27 2026, MaxMem=    33554432 cpu:         0.0
 (Enter /opt/g09/g09/l103.exe)

 GradGradGradGradGradGradGradGradGradGradGradGradGradGradGradGradGradGrad
 Berny optimization.
 Initialization pass.
                           ----------------------------
                           !    Initial Parameters    !
                           ! (Angstroms and Degrees)  !
 --------------------------                            --------------------------
 ! Name  Definition              Value          Derivative Info.                !
 --------------------------------------------------------------------------------
 ! R1    R(1,2)                  1.5            estimate D2E/DX2                !
 --------------------------------------------------------------------------------
 Trust Radius=3.00D-01 FncErr=1.00D-07 GrdErr=1.00D-06
 Number of steps in this run=     20 maximum allowed number of steps=    100.
 GradGradGradGradGradGradGradGradGradGradGradGradGradGradGradGradGradGrad

 Leave Link  103 at Wed Apr  8 12:51:27 2026, MaxMem=    33554432 cpu:         0.0
 (Enter /opt/g09/g09/l202.exe)
                          Input orientation:                          
 ---------------------------------------------------------------------
 Center     Atomic      Atomic             Coordinates (Angstroms)
 Number     Number       Type             X           Y           Z
 ---------------------------------------------------------------------
      1         15           0        0.000000    0.000000    0.000000
      2          8           0        0.000000    0.000000    1.500000
 ---------------------------------------------------------------------
 Stoichiometry    OP(2)
 Framework group  C*V[C*(OP)]
 Deg. of freedom     1
 Full point group                 C*V     NOp   4
 Largest Abelian subgroup         C2V     NOp   4
 Largest concise Abelian subgroup C1      NOp   1
                         Standard orientation:                         
 ---------------------------------------------------------------------
 Center     Atomic      Atomic             Coordinates (Angstroms)
 Number     Number       Type             X           Y           Z
 ---------------------------------------------------------------------
      1         15           0        0.000000    0.000000    0.521739
      2          8           0        0.000000    0.000000   -0.978261
 ---------------------------------------------------------------------
 Rotational constants (GHZ):      0.0000000     21.2944835     21.2944835
 Leave Link  202 at Wed Apr  8 12:51:27 2026, MaxMem=    33554432 cpu:         0.0
 (Enter /opt/g09/g09/l301.exe)
 Standard basis: 6-311+G(3df) (5D, 7F)
 Ernie: Thresh=  0.10000D-02 Tol=  0.10000D-05 Strict=F.
 There are    46 symmetry adapted cartesian basis functions of A1  symmetry.
 There are     8 symmetry adapted cartesian basis functions of A2  symmetry.
 There are    22 symmetry adapted cartesian basis functions of B1  symmetry.
 There are    22 symmetry adapted cartesian basis functions of B2  symmetry.
 There are    38 symmetry adapted basis functions of A1  symmetry.
 There are     8 symmetry adapted basis functions of A2  symmetry.
 There are    20 symmetry adapted basis functions of B1  symmetry.
 There are    20 symmetry adapted basis functions of B2  symmetry.
    86 basis functions,   130 primitive gaussians,    98 cartesian basis functions
    12 alpha electrons       11 beta electrons
       nuclear repulsion energy        42.3341766872 Hartrees.
 IExCor=  402 DFT=T Ex+Corr=B3LYP ExCW=0 ScaHFX=  0.200000
 ScaDFX=  0.800000  0.720000  1.000000  0.810000 ScalE2=  1.000000  1.000000
 IRadAn=      0 IRanWt=     -1 IRanGd=            0 ICorTp=0 IEmpDi=  4
 NAtoms=    2 NActive=    2 NUniq=    2 SFac= 1.00D+00 NAtFMM=   60 NAOKFM=F Big=F
 Integral buffers will be    131072 words long.
 Raffenetti 2 integral format.
 Two-electron integral symmetry is turned on.
 Leave Link  301 at Wed Apr  8 12:51:27 2026, MaxMem=    33554432 cpu:         0.0
 (Enter /opt/g09/g09/l302.exe)
 NPDir=0 NMtPBC=     1 NCelOv=     1 NCel=       1 NClECP=     1 NCelD=      1
         NCelK=      1 NCelE2=     1 NClLst=     1 CellRange=     0.0.
 One-electron integrals computed using PRISM.
 NBasis=    86 RedAO= T EigKep=  2.27D-03  NBF=    38     8    20    20
 NBsUse=    86 1.00D-06 EigRej= -1.00D+00 NBFU=    38     8    20    20
 Precomputing XC quadrature grid using
 IXCGrd= 4 IRadAn=           0 IRanWt=          -1 IRanGd=           0 AccXCQ= 0.00D+00.
 Generated NRdTot=       0 NPtTot=           0 NUsed=           0 NTot=          32
 NSgBfM=    98    98    98    98    98 MxSgAt=     2 MxSgA2=     2.
 Leave Link  302 at Wed Apr  8 12:51:27 2026, MaxMem=    33554432 cpu:         0.0
 (Enter /opt/g09/g09/l303.exe)
 DipDrv:  MaxL=1.
 Leave Link  303 at Wed Apr  8 12:51:27 2026, MaxMem=    33554432 cpu:         0.0
 (Enter /opt/g09/g09/l401.exe)
 ExpMin= 3.48D-02 ExpMax= 7.75D+04 ExpMxC= 2.65D+03 IAcc=3 IRadAn=         5 AccDes= 0.00D+00
 Harris functional with IExCor=  402 and IRadAn=       5 diagonalized for initial guess.
 HarFok:  IExCor=  402 AccDes= 0.00D+00 IRadAn=         5 IDoV= 1 UseB2=F ITyADJ=14
 ICtDFT=  3500011 ScaDFX=  1.000000  1.000000  1.000000  1.000000
 FoFCou: FMM=F IPFlag=           0 FMFlag=      100000 FMFlg1=           0
         NFxFlg=           0 DoJE=T BraDBF=F KetDBF=T FulRan=T
         wScrn=  0.000000 ICntrl=     500 IOpCl=  0 I1Cent=   200000004 NGrid=           0
         NMat0=    1 NMatS0=      1 NMatT0=    0 NMatD0=    1 NMtDS0=    0 NMtDT0=    0
 Petite list used in FoFCou.
 Harris En= -416.616569242451    
 JPrj=0 DoOrth=F DoCkMO=F.
 Initial guess orbital symmetries:
 Alpha Orbitals:
       Occupied  (SG) (SG) (SG) (SG) (PI) (PI) (SG) (SG) (PI) (PI)
                 (SG) (PI)
       Virtual   (PI) (SG) (SG) (PI) (PI) (SG) (SG) (PI) (PI) (DLTA)
                 (DLTA) (SG) (PI) (PI) (PI) (PI) (SG) (SG) (SG)
                 (DLTA) (DLTA) (PI) (PI) (SG) (DLTA) (DLTA) (PI)
                 (PI) (SG) (SG) (PI) (PI) (PHI) (PHI) (DLTA) (DLTA)
                 (PI) (PI) (SG) (PI) (PI) (SG) (SG) (DLTA) (DLTA)
                 (PI) (PI) (SG) (DLTA) (DLTA) (PI) (PI) (SG) (PI)
                 (PI) (PHI) (PHI) (DLTA) (DLTA) (SG) (SG) (PI)
                 (PI) (SG) (PI) (PI) (SG) (DLTA) (DLTA) (PI) (PI)
                 (SG) (SG) (SG)
 Beta  Orbitals:
       Occupied  (SG) (SG) (SG) (SG) (PI) (PI) (SG) (SG) (PI) (PI)
                 (SG)
       Virtual   (PI) (PI) (SG) (SG) (PI) (PI) (SG) (SG) (PI) (PI)
                 (DLTA) (DLTA) (SG) (PI) (PI) (PI) (PI) (SG) (SG)
                 (SG) (DLTA) (DLTA) (PI) (PI) (SG) (DLTA) (DLTA)
                 (PI) (PI) (SG) (SG) (PI) (PI) (PHI) (PHI) (DLTA)
                 (DLTA) (PI) (PI) (SG) (PI) (PI) (SG) (SG) (DLTA)
                 (DLTA) (PI) (PI) (SG) (DLTA) (DLTA) (PI) (PI)
                 (SG) (PI) (PI) (PHI) (PHI) (DLTA) (DLTA) (SG)
                 (SG) (PI) (PI) (SG) (PI) (PI) (SG) (DLTA) (DLTA)
                 (PI) (PI) (SG) (SG) (SG)
 Initial guess <Sx>= 0.0000 <Sy>= 0.0000 <Sz>= 0.5000 <S**2>= 0.7500 S= 0.5000
 Leave Link  401 at Wed Apr  8 12:51:27 2026, MaxMem=    33554432 cpu:         0.1
 (Enter /opt/g09/g09/l502.exe)
 UHF open shell SCF:
 Using DIIS extrapolation, IDIIS=  1040.
 Integral symmetry usage will be decided dynamically.
 Keep R1 and R2 ints in memory in symmetry-blocked form, NReq=9022391.
 IVT=       48740 IEndB=       48740 NGot=    33554432 MDV=    29870235
 LenX=    29870235 LenY=    29860190
 Requested convergence on RMS density matrix=1.00D-08 within 128 cycles.
 Requested convergence on MAX density matrix=1.00D-06.
 Requested convergence on             energy=1.00D-06.
 No special actions if energy rises.
 FoFCou: FMM=F IPFlag=           0 FMFlag=           0 FMFlg1=           0
         NFxFlg=           0 DoJE=F BraDBF=F KetDBF=F FulRan=T
         wScrn=  0.000000 ICntrl=     600 IOpCl=  0 I1Cent=           0 NGrid=           0
         NMat0=    1 NMatS0=   3741 NMatT0=    0 NMatD0=    1 NMtDS0=    0 NMtDT0=    0
 Petite list used in FoFCou.

 Cycle   1  Pass 1  IDiag  1:
 E= -416.418702208343    
 DIIS: error= 5.59D-02 at cycle   1 NSaved=   1.
 NSaved= 1 IEnMin= 1 EnMin= -416.418702208343     IErMin= 1 ErrMin= 5.59D-02
 ErrMax= 5.59D-02  0.00D+00 EMaxC= 1.00D-01 BMatC= 9.54D-01 BMatP= 9.54D-01
 IDIUse=3 WtCom= 4.41D-01 WtEn= 5.59D-01
 Coeff-Com:  0.100D+01
 Coeff-En:   0.100D+01
 Coeff:      0.100D+01
 Gap=    -0.035 Goal=   None    Shift=    0.000
 Gap=     0.041 Goal=   None    Shift=    0.000
 GapD=   -0.035 DampG=0.250 DampE=0.500 DampFc=0.2500 IDamp=-1.
 Damping current iteration by 2.50D-01
 RMSDP=1.19D-02 MaxDP=2.92D-01              OVMax= 7.36D-01

 Cycle   2  Pass 1  IDiag  1:
 E= -416.439854076086     Delta-E=       -0.021151867743 Rises=F Damp=T
 DIIS: error= 1.24D-02 at cycle   2 NSaved=   2.
 NSaved= 2 IEnMin= 2 EnMin= -416.439854076086     IErMin= 2 ErrMin= 1.24D-02
 ErrMax= 1.24D-02  0.00D+00 EMaxC= 1.00D-01 BMatC= 4.38D-02 BMatP= 9.54D-01
 IDIUse=3 WtCom= 8.76D-01 WtEn= 1.24D-01
 Coeff-Com:  0.129D-01 0.987D+00
 Coeff-En:   0.439D+00 0.561D+00
 Coeff:      0.658D-01 0.934D+00
 Gap=     0.072 Goal=   None    Shift=    0.000
 Gap=     0.101 Goal=   None    Shift=    0.000
 RMSDP=1.99D-03 MaxDP=3.99D-02 DE=-2.12D-02 OVMax= 6.35D-01

 Cycle   3  Pass 1  IDiag  1:
 E= -416.591397747033     Delta-E=       -0.151543670947 Rises=F Damp=F
 DIIS: error= 1.64D-02 at cycle   3 NSaved=   3.
 NSaved= 3 IEnMin= 3 EnMin= -416.591397747033     IErMin= 2 ErrMin= 1.24D-02
 ErrMax= 1.64D-02  0.00D+00 EMaxC= 1.00D-01 BMatC= 4.00D-02 BMatP= 4.38D-02
 IDIUse=3 WtCom= 8.36D-01 WtEn= 1.64D-01
 Coeff-Com: -0.134D+00 0.383D+00 0.751D+00
 Coeff-En:   0.000D+00 0.000D+00 0.100D+01
 Coeff:     -0.112D+00 0.320D+00 0.792D+00
 Gap=     0.068 Goal=   None    Shift=    0.000
 Gap=     0.232 Goal=   None    Shift=    0.000
 RMSDP=1.07D-03 MaxDP=2.21D-02 DE=-1.52D-01 OVMax= 6.41D-02

 Cycle   4  Pass 1  IDiag  1:
 E= -416.602236327087     Delta-E=       -0.010838580054 Rises=F Damp=F
 DIIS: error= 3.80D-03 at cycle   4 NSaved=   4.
 NSaved= 4 IEnMin= 4 EnMin= -416.602236327087     IErMin= 4 ErrMin= 3.80D-03
 ErrMax= 3.80D-03  0.00D+00 EMaxC= 1.00D-01 BMatC= 3.50D-03 BMatP= 4.00D-02
 IDIUse=3 WtCom= 9.62D-01 WtEn= 3.80D-02
 Coeff-Com:  0.462D-01-0.747D-01 0.546D-01 0.974D+00
 Coeff-En:   0.000D+00 0.000D+00 0.221D-01 0.978D+00
 Coeff:      0.445D-01-0.719D-01 0.533D-01 0.974D+00
 Gap=     0.073 Goal=   None    Shift=    0.000
 Gap=     0.240 Goal=   None    Shift=    0.000
 RMSDP=1.34D-04 MaxDP=3.83D-03 DE=-1.08D-02 OVMax= 5.83D-03

 Cycle   5  Pass 1  IDiag  1:
 E= -416.602673710450     Delta-E=       -0.000437383363 Rises=F Damp=F
 DIIS: error= 2.48D-03 at cycle   5 NSaved=   5.
 NSaved= 5 IEnMin= 5 EnMin= -416.602673710450     IErMin= 5 ErrMin= 2.48D-03
 ErrMax= 2.48D-03  0.00D+00 EMaxC= 1.00D-01 BMatC= 9.43D-04 BMatP= 3.50D-03
 IDIUse=3 WtCom= 9.75D-01 WtEn= 2.48D-02
 Coeff-Com:  0.286D-01-0.463D-01 0.344D-01 0.184D+00 0.800D+00
 Coeff-En:   0.000D+00 0.000D+00 0.000D+00 0.000D+00 0.100D+01
 Coeff:      0.279D-01-0.452D-01 0.335D-01 0.179D+00 0.805D+00
 Gap=     0.073 Goal=   None    Shift=    0.000
 Gap=     0.241 Goal=   None    Shift=    0.000
 RMSDP=7.90D-05 MaxDP=1.88D-03 DE=-4.37D-04 OVMax= 5.23D-03

 Cycle   6  Pass 1  IDiag  1:
 E= -416.602872827627     Delta-E=       -0.000199117177 Rises=F Damp=F
 DIIS: error= 9.37D-04 at cycle   6 NSaved=   6.
 NSaved= 6 IEnMin= 6 EnMin= -416.602872827627     IErMin= 6 ErrMin= 9.37D-04
 ErrMax= 9.37D-04  0.00D+00 EMaxC= 1.00D-01 BMatC= 1.23D-04 BMatP= 9.43D-04
 IDIUse=3 WtCom= 9.91D-01 WtEn= 9.37D-03
 Coeff-Com:  0.240D-02-0.386D-02 0.281D-01-0.691D-01 0.127D-01 0.103D+01
 Coeff-En:   0.000D+00 0.000D+00 0.000D+00 0.000D+00 0.000D+00 0.100D+01
 Coeff:      0.237D-02-0.383D-02 0.278D-01-0.684D-01 0.126D-01 0.103D+01
 Gap=     0.072 Goal=   None    Shift=    0.000
 Gap=     0.241 Goal=   None    Shift=    0.000
 RMSDP=3.99D-05 MaxDP=9.47D-04 DE=-1.99D-04 OVMax= 3.12D-03

 Cycle   7  Pass 1  IDiag  1:
 E= -416.602902534260     Delta-E=       -0.000029706634 Rises=F Damp=F
 DIIS: error= 5.26D-05 at cycle   7 NSaved=   7.
 NSaved= 7 IEnMin= 7 EnMin= -416.602902534260     IErMin= 7 ErrMin= 5.26D-05
 ErrMax= 5.26D-05  0.00D+00 EMaxC= 1.00D-01 BMatC= 5.16D-07 BMatP= 1.23D-04
 IDIUse=1 WtCom= 1.00D+00 WtEn= 0.00D+00
 Coeff-Com: -0.113D-02 0.164D-02 0.330D-02-0.124D-01-0.701D-01 0.202D+00
 Coeff-Com:  0.877D+00
 Coeff:     -0.113D-02 0.164D-02 0.330D-02-0.124D-01-0.701D-01 0.202D+00
 Coeff:      0.877D+00
 Gap=     0.072 Goal=   None    Shift=    0.000
 Gap=     0.241 Goal=   None    Shift=    0.000
 RMSDP=6.51D-06 MaxDP=2.11D-04 DE=-2.97D-05 OVMax= 5.89D-04

 Cycle   8  Pass 1  IDiag  1:
 E= -416.602902721686     Delta-E=       -0.000000187426 Rises=F Damp=F
 DIIS: error= 5.56D-05 at cycle   8 NSaved=   8.
 NSaved= 8 IEnMin= 8 EnMin= -416.602902721686     IErMin= 7 ErrMin= 5.26D-05
 ErrMax= 5.56D-05  0.00D+00 EMaxC= 1.00D-01 BMatC= 2.78D-07 BMatP= 5.16D-07
 IDIUse=1 WtCom= 1.00D+00 WtEn= 0.00D+00
 Coeff-Com: -0.160D-03 0.183D-03-0.301D-02 0.367D-02 0.977D-02-0.625D-01
 Coeff-Com: -0.687D-01 0.112D+01
 Coeff:     -0.160D-03 0.183D-03-0.301D-02 0.367D-02 0.977D-02-0.625D-01
 Coeff:     -0.687D-01 0.112D+01
 Gap=     0.072 Goal=   None    Shift=    0.000
 Gap=     0.241 Goal=   None    Shift=    0.000
 RMSDP=3.26D-06 MaxDP=1.00D-04 DE=-1.87D-07 OVMax= 3.25D-04

 Cycle   9  Pass 1  IDiag  1:
 E= -416.602902848549     Delta-E=       -0.000000126862 Rises=F Damp=F
 DIIS: error= 1.65D-05 at cycle   9 NSaved=   9.
 NSaved= 9 IEnMin= 9 EnMin= -416.602902848549     IErMin= 9 ErrMin= 1.65D-05
 ErrMax= 1.65D-05  0.00D+00 EMaxC= 1.00D-01 BMatC= 1.91D-08 BMatP= 2.78D-07
 IDIUse=1 WtCom= 1.00D+00 WtEn= 0.00D+00
 Coeff-Com:  0.142D-03-0.191D-03-0.107D-02 0.241D-02 0.188D-01-0.611D-01
 Coeff-Com: -0.210D+00-0.416D-01 0.129D+01
 Coeff:      0.142D-03-0.191D-03-0.107D-02 0.241D-02 0.188D-01-0.611D-01
 Coeff:     -0.210D+00-0.416D-01 0.129D+01
 Gap=     0.072 Goal=   None    Shift=    0.000
 Gap=     0.241 Goal=   None    Shift=    0.000
 RMSDP=2.54D-06 MaxDP=8.07D-05 DE=-1.27D-07 OVMax= 2.58D-04

 Cycle  10  Pass 1  IDiag  1:
 E= -416.602902879294     Delta-E=       -0.000000030746 Rises=F Damp=F
 DIIS: error= 9.77D-06 at cycle  10 NSaved=  10.
 NSaved=10 IEnMin=10 EnMin= -416.602902879294     IErMin=10 ErrMin= 9.77D-06
 ErrMax= 9.77D-06  0.00D+00 EMaxC= 1.00D-01 BMatC= 6.79D-09 BMatP= 1.91D-08
 IDIUse=1 WtCom= 1.00D+00 WtEn= 0.00D+00
 Coeff-Com:  0.367D-04-0.493D-04 0.847D-03-0.101D-02-0.809D-02 0.262D-01
 Coeff-Com:  0.599D-01-0.147D+00-0.403D+00 0.147D+01
 Coeff:      0.367D-04-0.493D-04 0.847D-03-0.101D-02-0.809D-02 0.262D-01
 Coeff:      0.599D-01-0.147D+00-0.403D+00 0.147D+01
 Gap=     0.072 Goal=   None    Shift=    0.000
 Gap=     0.241 Goal=   None    Shift=    0.000
 RMSDP=1.21D-06 MaxDP=4.30D-05 DE=-3.07D-08 OVMax= 1.33D-04

 Cycle  11  Pass 1  IDiag  1:
 E= -416.602902884809     Delta-E=       -0.000000005514 Rises=F Damp=F
 DIIS: error= 2.23D-06 at cycle  11 NSaved=  11.
 NSaved=11 IEnMin=11 EnMin= -416.602902884809     IErMin=11 ErrMin= 2.23D-06
 ErrMax= 2.23D-06  0.00D+00 EMaxC= 1.00D-01 BMatC= 4.67D-10 BMatP= 6.79D-09
 IDIUse=1 WtCom= 1.00D+00 WtEn= 0.00D+00
 Coeff-Com: -0.529D-05 0.119D-04-0.734D-04 0.973D-04 0.461D-03-0.182D-02
 Coeff-Com:  0.407D-02 0.330D-01 0.114D-01-0.416D+00 0.137D+01
 Coeff:     -0.529D-05 0.119D-04-0.734D-04 0.973D-04 0.461D-03-0.182D-02
 Coeff:      0.407D-02 0.330D-01 0.114D-01-0.416D+00 0.137D+01
 Gap=     0.072 Goal=   None    Shift=    0.000
 Gap=     0.241 Goal=   None    Shift=    0.000
 RMSDP=2.70D-07 MaxDP=8.95D-06 DE=-5.51D-09 OVMax= 2.78D-05

 Cycle  12  Pass 1  IDiag  1:
 E= -416.602902885054     Delta-E=       -0.000000000245 Rises=F Damp=F
 DIIS: error= 4.64D-07 at cycle  12 NSaved=  12.
 NSaved=12 IEnMin=12 EnMin= -416.602902885054     IErMin=12 ErrMin= 4.64D-07
 ErrMax= 4.64D-07  0.00D+00 EMaxC= 1.00D-01 BMatC= 3.55D-11 BMatP= 4.67D-10
 IDIUse=1 WtCom= 1.00D+00 WtEn= 0.00D+00
 Coeff-Com: -0.244D-05 0.156D-05-0.306D-05-0.243D-05 0.156D-03 0.416D-04
 Coeff-Com: -0.268D-02-0.314D-02 0.384D-02 0.630D-01-0.304D+00 0.124D+01
 Coeff:     -0.244D-05 0.156D-05-0.306D-05-0.243D-05 0.156D-03 0.416D-04
 Coeff:     -0.268D-02-0.314D-02 0.384D-02 0.630D-01-0.304D+00 0.124D+01
 Gap=     0.072 Goal=   None    Shift=    0.000
 Gap=     0.241 Goal=   None    Shift=    0.000
 RMSDP=2.50D-08 MaxDP=6.54D-07 DE=-2.45D-10 OVMax= 1.90D-06

 Cycle  13  Pass 1  IDiag  1:
 E= -416.602902885061     Delta-E=       -0.000000000007 Rises=F Damp=F
 DIIS: error= 8.51D-08 at cycle  13 NSaved=  13.
 NSaved=13 IEnMin=13 EnMin= -416.602902885061     IErMin=13 ErrMin= 8.51D-08
 ErrMax= 8.51D-08  0.00D+00 EMaxC= 1.00D-01 BMatC= 1.02D-12 BMatP= 3.55D-11
 IDIUse=1 WtCom= 1.00D+00 WtEn= 0.00D+00
 Coeff-Com:  0.835D-07-0.303D-07 0.630D-06-0.319D-05-0.135D-04 0.284D-04
 Coeff-Com:  0.360D-03-0.922D-04-0.984D-03-0.256D-02 0.243D-01-0.203D+00
 Coeff-Com:  0.118D+01
 Coeff:      0.835D-07-0.303D-07 0.630D-06-0.319D-05-0.135D-04 0.284D-04
 Coeff:      0.360D-03-0.922D-04-0.984D-03-0.256D-02 0.243D-01-0.203D+00
 Coeff:      0.118D+01
 Gap=     0.072 Goal=   None    Shift=    0.000
 Gap=     0.241 Goal=   None    Shift=    0.000
 RMSDP=4.56D-09 MaxDP=1.35D-07 DE=-7.33D-12 OVMax= 3.78D-07

 SCF Done:  E(UB3LYP) =  -416.602902885     A.U. after   13 cycles
            NFock= 13  Conv=0.46D-08     -V/T= 2.0020
 <Sx>= 0.0000 <Sy>= 0.0000 <Sz>= 0.5000 <S**2>= 0.7546 S= 0.5023
 <L.S>= 0.000000000000E+00
 KE= 4.157898172829D+02 PE=-1.075200679521D+03 EE= 2.004737826661D+02
 Annihilation of the first spin contaminant:
 S**2 before annihilation     0.7546,   after     0.7500
 Leave Link  502 at Wed Apr  8 12:51:28 2026, MaxMem=    33554432 cpu:         0.6
 (Enter /opt/g09/g09/l601.exe)
 Copying SCF densities to generalized density rwf, IOpCl= 1 IROHF=0.

 **********************************************************************

            Population analysis using the SCF density.

 **********************************************************************

 Orbital symmetries:
 Alpha Orbitals:
       Occupied  (SG) (SG) (SG) (PI) (PI) (SG) (SG) (SG) (PI) (SG)
                 (PI) (PI)
       Virtual   (PI) (SG) (SG) (PI) (PI) (SG) (DLTA) (DLTA) (SG)
                 (PI) (PI) (SG) (PI) (PI) (PI) (PI) (SG) (SG) (SG)
                 (PI) (PI) (DLTA) (DLTA) (?A) (?A) (?A) (PI) (PI)
                 (SG) (PI) (PI) (SG) (PHI) (PHI) (DLTA) (DLTA)
                 (PI) (PI) (SG) (PI) (PI) (SG) (SG) (DLTA) (DLTA)
                 (PI) (PI) (SG) (DLTA) (DLTA) (PI) (PI) (SG) (?B)
                 (?B) (?B) (?B) (DLTA) (DLTA) (SG) (PI) (PI) (SG)
                 (SG) (PI) (PI) (SG) (DLTA) (DLTA) (PI) (PI) (SG)
                 (SG) (SG)
 Beta  Orbitals:
       Occupied  (SG) (SG) (SG) (PI) (SG) (PI) (SG) (SG) (PI) (SG)
                 (PI)
       Virtual   (PI) (PI) (?A) (SG) (PI) (PI) (?A) (?A) (?A) (?A)
                 (PI) (PI) (?A) (PI) (PI) (PI) (PI) (SG) (SG) (?B)
                 (PI) (?B) (?B) (PI) (?B) (?B) (?B) (PI) (PI) (?B)
                 (?C) (?C) (SG) (?C) (?C) (?D) (?D) (?C) (?C) (?D)
                 (PI) (PI) (SG) (SG) (?E) (?E) (PI) (PI) (?E) (DLTA)
                 (DLTA) (PI) (PI) (SG) (?F) (?F) (?F) (?F) (DLTA)
                 (DLTA) (SG) (PI) (SG) (PI) (SG) (PI) (PI) (SG)
                 (DLTA) (DLTA) (PI) (PI) (SG) (SG) (SG)
 Unable to determine electronic state:  partially filled degenerate orbitals.
 Alpha  occ. eigenvalues --  -77.12564 -19.16745  -6.61717  -4.78118  -4.77834
 Alpha  occ. eigenvalues --   -4.77457  -1.02580  -0.56757  -0.41080  -0.39913
 Alpha  occ. eigenvalues --   -0.39613  -0.20977
 Alpha virt. eigenvalues --   -0.13740  -0.00972   0.00758   0.04269   0.04358
 Alpha virt. eigenvalues --    0.08809   0.15449   0.15663   0.18701   0.19131
 Alpha virt. eigenvalues --    0.19221   0.20959   0.26832   0.26985   0.28947
 Alpha virt. eigenvalues --    0.29188   0.31178   0.46722   0.70670   0.77512
 Alpha virt. eigenvalues --    0.77521   0.78049   0.78117   0.82391   0.82588
 Alpha virt. eigenvalues --    0.87942   1.00547   1.00786   1.03516   1.20322
 Alpha virt. eigenvalues --    1.20589   1.23161   1.28083   1.28136   1.42977
 Alpha virt. eigenvalues --    1.43177   1.46932   1.46978   1.54059   1.76229
 Alpha virt. eigenvalues --    1.76283   1.89507   2.11921   3.34136   3.34196
 Alpha virt. eigenvalues --    3.42172   3.42264   3.56515   3.98495   3.98587
 Alpha virt. eigenvalues --    4.14355   4.15136   4.49672   4.95208   4.95678
 Alpha virt. eigenvalues --    4.99690   4.99693   5.09828   5.09861   5.47000
 Alpha virt. eigenvalues --    5.57348   5.57697   5.58242   7.56392  13.77143
 Alpha virt. eigenvalues --   13.77246  13.95238  14.22358  14.22452  14.31354
 Alpha virt. eigenvalues --   14.32030  14.80499  49.91844 163.48849
  Beta  occ. eigenvalues --  -77.12210 -19.16038  -6.61383  -4.77928  -4.77280
  Beta  occ. eigenvalues --   -4.76651  -1.01208  -0.54082  -0.39106  -0.38354
  Beta  occ. eigenvalues --   -0.36945
  Beta virt. eigenvalues --   -0.12814  -0.09703  -0.00525   0.00973   0.04334
  Beta virt. eigenvalues --    0.04743   0.09215   0.17671   0.17693   0.18947
  Beta virt. eigenvalues --    0.19260   0.19922   0.21181   0.27139   0.28612
  Beta virt. eigenvalues --    0.29330   0.30950   0.31393   0.47620   0.71323
  Beta virt. eigenvalues --    0.77582   0.78671   0.78679   0.79431   0.84871
  Beta virt. eigenvalues --    0.85005   0.88731   1.00992   1.02159   1.04236
  Beta virt. eigenvalues --    1.20416   1.22403   1.23756   1.31531   1.31548
  Beta virt. eigenvalues --    1.44882   1.44986   1.47441   1.50123   1.54955
  Beta virt. eigenvalues --    1.76333   1.78529   1.89816   2.12705   3.36027
  Beta virt. eigenvalues --    3.36057   3.42430   3.44073   3.57338   3.99459
  Beta virt. eigenvalues --    3.99487   4.14398   4.16058   4.50359   4.96134
  Beta virt. eigenvalues --    4.98055   5.01305   5.01338   5.10899   5.10915
  Beta virt. eigenvalues --    5.47873   5.57564   5.58912   5.59192   7.56856
  Beta virt. eigenvalues --   13.77424  13.78892  13.95763  14.25148  14.25153
  Beta virt. eigenvalues --   14.32375  14.34082  14.81392  49.92543 163.49174
     Alpha Molecular Orbital Coefficients:
                           1         2         3         4         5
                           O         O         O         O         O
     Eigenvalues --   -77.12564 -19.16745  -6.61717  -4.78118  -4.77834
   1 1   P  1S          0.41906   0.00000  -0.12007   0.00000   0.00000
   2        2S          0.64596  -0.00003  -0.31244   0.00000   0.00000
   3        3S          0.01430   0.00026   0.51274   0.00000   0.00000
   4        4S         -0.00471  -0.00076   0.59334   0.00000   0.00000
   5        5S          0.00260   0.00262   0.06599   0.00000   0.00000
   6        6S          0.00020   0.00959  -0.02435   0.00000   0.00000
   7        7S          0.00013   0.00027  -0.00001   0.00000   0.00000
   8        7PX         0.00000   0.00000   0.00000  -0.00108   0.00000
   9        7PY         0.00000   0.00000   0.00000   0.00000  -0.00092
  10        7PZ        -0.00018   0.00119  -0.00439   0.00000   0.00000
  11        8PX         0.00000   0.00000   0.00000   0.40783   0.00000
  12        8PY         0.00000   0.00000   0.00000   0.00000   0.40868
  13        8PZ        -0.00010   0.00001  -0.00147   0.00000   0.00000
  14        9PX         0.00000   0.00000   0.00000   0.68095   0.00000
  15        9PY         0.00000   0.00000   0.00000   0.00000   0.68065
  16        9PZ         0.00009   0.00001  -0.00250   0.00000   0.00000
  17       10PX         0.00000   0.00000   0.00000   0.05616   0.00000
  18       10PY         0.00000   0.00000   0.00000   0.00000   0.05513
  19       10PZ        -0.00004  -0.00015   0.00015   0.00000   0.00000
  20       11PX         0.00000   0.00000   0.00000  -0.00438   0.00000
  21       11PY         0.00000   0.00000   0.00000   0.00000  -0.00378
  22       11PZ        -0.00170  -0.00630  -0.01436   0.00000   0.00000
  23       12PX         0.00000   0.00000   0.00000   0.00206   0.00000
  24       12PY         0.00000   0.00000   0.00000   0.00000   0.00177
  25       12PZ         0.00016  -0.00398   0.01180   0.00000   0.00000
  26       13D 0       -0.00012  -0.00002  -0.00126   0.00000   0.00000
  27       13D+1        0.00000   0.00000   0.00000  -0.00043   0.00000
  28       13D-1        0.00000   0.00000   0.00000   0.00000  -0.00056
  29       13D+2        0.00000   0.00000   0.00067   0.00000   0.00000
  30       13D-2        0.00000   0.00000   0.00000   0.00000   0.00000
  31       14D 0        0.00061   0.00108   0.00514   0.00000   0.00000
  32       14D+1        0.00000   0.00000   0.00000   0.00031   0.00000
  33       14D-1        0.00000   0.00000   0.00000   0.00000   0.00048
  34       14D+2        0.00000   0.00000  -0.00018   0.00000   0.00000
  35       14D-2        0.00000   0.00000   0.00000   0.00000   0.00000
  36       15D 0        0.00028   0.00220   0.00065   0.00000   0.00000
  37       15D+1        0.00000   0.00000   0.00000   0.00036   0.00000
  38       15D-1        0.00000   0.00000   0.00000   0.00000   0.00031
  39       15D+2        0.00000   0.00000   0.00000   0.00000   0.00000
  40       15D-2        0.00000   0.00000   0.00000   0.00000   0.00000
  41       16F 0       -0.00020   0.00032  -0.00179   0.00000   0.00000
  42       16F+1        0.00000   0.00000   0.00000  -0.00032   0.00000
  43       16F-1        0.00000   0.00000   0.00000   0.00000  -0.00031
  44       16F+2        0.00000   0.00000  -0.00007   0.00000   0.00000
  45       16F-2        0.00000   0.00000   0.00000   0.00000   0.00000
  46       16F+3        0.00000   0.00000   0.00000  -0.00001   0.00000
  47       16F-3        0.00000   0.00000   0.00000   0.00000   0.00001
  48 2   O  1S          0.00001   0.55122  -0.00015   0.00000   0.00000
  49        2S         -0.00002   0.46978  -0.00030   0.00000   0.00000
  50        2PX         0.00000   0.00000   0.00000   0.00007   0.00000
  51        2PY         0.00000   0.00000   0.00000   0.00000   0.00009
  52        2PZ         0.00006   0.00093   0.00034   0.00000   0.00000
  53        3S          0.00037   0.01449   0.00309   0.00000   0.00000
  54        3PX         0.00000   0.00000   0.00000   0.00017   0.00000
  55        3PY         0.00000   0.00000   0.00000   0.00000   0.00022
  56        3PZ        -0.00015   0.00060  -0.00058   0.00000   0.00000
  57        4S         -0.00195  -0.01385  -0.01596   0.00000   0.00000
  58        4PX         0.00000   0.00000   0.00000   0.00063   0.00000
  59        4PY         0.00000   0.00000   0.00000   0.00000   0.00059
  60        4PZ        -0.00161  -0.00658  -0.01409   0.00000   0.00000
  61        5S         -0.00027  -0.00427   0.01413   0.00000   0.00000
  62        5PX         0.00000   0.00000   0.00000   0.00003   0.00000
  63        5PY         0.00000   0.00000   0.00000   0.00000   0.00001
  64        5PZ         0.00016  -0.00160   0.00815   0.00000   0.00000
  65        6D 0        0.00004  -0.00007   0.00005   0.00000   0.00000
  66        6D+1        0.00000   0.00000   0.00000   0.00000   0.00000
  67        6D-1        0.00000   0.00000   0.00000   0.00000   0.00000
  68        6D+2        0.00000  -0.00011   0.00000   0.00000   0.00000
  69        6D-2        0.00000   0.00000   0.00000   0.00000   0.00000
  70        7D 0       -0.00014   0.00021  -0.00035   0.00000   0.00000
  71        7D+1        0.00000   0.00000   0.00000   0.00014   0.00000
  72        7D-1        0.00000   0.00000   0.00000   0.00000   0.00016
  73        7D+2        0.00000  -0.00003   0.00000   0.00000   0.00000
  74        7D-2        0.00000   0.00000   0.00000   0.00000   0.00000
  75        8D 0       -0.00066  -0.00260  -0.00564   0.00000   0.00000
  76        8D+1        0.00000   0.00000   0.00000   0.00048   0.00000
  77        8D-1        0.00000   0.00000   0.00000   0.00000   0.00045
  78        8D+2        0.00000   0.00000   0.00000   0.00000   0.00000
  79        8D-2        0.00000   0.00000   0.00000   0.00000   0.00000
  80        9F 0       -0.00012  -0.00025  -0.00008   0.00000   0.00000
  81        9F+1        0.00000   0.00000   0.00000   0.00012   0.00000
  82        9F-1        0.00000   0.00000   0.00000   0.00000   0.00014
  83        9F+2        0.00000   0.00000   0.00000   0.00000   0.00000
  84        9F-2        0.00000   0.00000   0.00000   0.00000   0.00000
  85        9F+3        0.00000   0.00000   0.00000   0.00000   0.00000
  86        9F-3        0.00000   0.00000   0.00000   0.00000   0.00000
                           6         7         8         9        10
                           O         O         O         O         O
     Eigenvalues --    -4.77457  -1.02580  -0.56757  -0.41080  -0.39913
   1 1   P  1S         -0.00044   0.01302   0.03097   0.00000   0.01001
   2        2S         -0.00114   0.03579   0.08542   0.00000   0.02764
   3        3S          0.00169  -0.07508  -0.18208   0.00000  -0.05921
   4        4S          0.00278  -0.13104  -0.33378   0.00000  -0.11003
   5        5S         -0.00090   0.19699   0.55759   0.00000   0.17351
   6        6S          0.00439   0.08959   0.57110   0.00000   0.35020
   7        7S          0.00069   0.01315   0.01516   0.00000   0.02847
   8        7PX         0.00000   0.00000   0.00000   0.00000   0.00000
   9        7PY         0.00000   0.00000   0.00000  -0.01799   0.00000
  10        7PZ        -0.00030  -0.00391   0.02055   0.00000  -0.01502
  11        8PX         0.00000   0.00000   0.00000   0.00000   0.00000
  12        8PY         0.00000   0.00000   0.00000  -0.05742   0.00000
  13        8PZ         0.40825   0.03653  -0.00856   0.00000  -0.07705
  14        9PX         0.00000   0.00000   0.00000   0.00000   0.00000
  15        9PY         0.00000   0.00000   0.00000  -0.09905   0.00000
  16        9PZ         0.68058   0.06425  -0.01499   0.00000  -0.13349
  17       10PX         0.00000   0.00000   0.00000   0.00000   0.00000
  18       10PY         0.00000   0.00000   0.00000   0.11923   0.00000
  19       10PZ         0.05604  -0.07130   0.01508   0.00000   0.17008
  20       11PX         0.00000   0.00000   0.00000   0.00000   0.00000
  21       11PY         0.00000   0.00000   0.00000   0.26725   0.00000
  22       11PZ        -0.00515  -0.06854   0.05435   0.00000   0.32713
  23       12PX         0.00000   0.00000   0.00000   0.00000   0.00000
  24       12PY         0.00000   0.00000   0.00000   0.10610   0.00000
  25       12PZ        -0.00071  -0.01517  -0.05845   0.00000   0.08199
  26       13D 0       -0.00048   0.01281   0.00010   0.00000  -0.01634
  27       13D+1        0.00000   0.00000   0.00000   0.00000   0.00000
  28       13D-1        0.00000   0.00000   0.00000  -0.01207   0.00000
  29       13D+2        0.00004   0.00003  -0.00019   0.00000  -0.00037
  30       13D-2        0.00000   0.00000   0.00000   0.00000   0.00000
  31       14D 0       -0.00028   0.04583  -0.00888   0.00000  -0.07162
  32       14D+1        0.00000   0.00000   0.00000   0.00000   0.00000
  33       14D-1        0.00000   0.00000   0.00000  -0.05263   0.00000
  34       14D+2       -0.00014  -0.00013  -0.00572   0.00000  -0.00559
  35       14D-2        0.00000   0.00000   0.00000   0.00000   0.00000
  36       15D 0        0.00134   0.00729   0.00425   0.00000  -0.02049
  37       15D+1        0.00000   0.00000   0.00000   0.00000   0.00000
  38       15D-1        0.00000   0.00000   0.00000  -0.01635   0.00000
  39       15D+2        0.00000   0.00018  -0.00526   0.00000  -0.00563
  40       15D-2        0.00000   0.00000   0.00000   0.00000   0.00000
  41       16F 0       -0.00018  -0.01668  -0.00669   0.00000   0.01250
  42       16F+1        0.00000   0.00000   0.00000   0.00000   0.00000
  43       16F-1        0.00000   0.00000   0.00000   0.01612   0.00000
  44       16F+2        0.00001  -0.00136  -0.00307   0.00000  -0.00139
  45       16F-2        0.00000   0.00000   0.00000   0.00000   0.00000
  46       16F+3        0.00000   0.00000   0.00000   0.00000   0.00000
  47       16F-3        0.00000   0.00000   0.00000   0.00032   0.00000
  48 2   O  1S          0.00047  -0.11507   0.05189   0.00000  -0.01936
  49        2S          0.00067  -0.18436   0.08440   0.00000  -0.03142
  50        2PX         0.00000   0.00000   0.00000   0.00000   0.00000
  51        2PY         0.00000   0.00000   0.00000   0.25801   0.00000
  52        2PZ        -0.00064   0.05941   0.12178   0.00000  -0.23353
  53        3S         -0.00145   0.53482  -0.26098   0.00000   0.09430
  54        3PX         0.00000   0.00000   0.00000   0.00000   0.00000
  55        3PY         0.00000   0.00000   0.00000   0.37541   0.00000
  56        3PZ        -0.00138   0.08976   0.17230   0.00000  -0.33547
  57        4S         -0.00257   0.39825  -0.27860   0.00000   0.16098
  58        4PX         0.00000   0.00000   0.00000   0.00000   0.00000
  59        4PY         0.00000   0.00000   0.00000   0.31913   0.00000
  60        4PZ        -0.00117   0.05842   0.11570   0.00000  -0.24074
  61        5S         -0.00328  -0.04889  -0.17038   0.00000   0.02035
  62        5PX         0.00000   0.00000   0.00000   0.00000   0.00000
  63        5PY         0.00000   0.00000   0.00000   0.03170   0.00000
  64        5PZ        -0.00090  -0.01693  -0.05115   0.00000  -0.05642
  65        6D 0        0.00000   0.00050   0.00117   0.00000  -0.00143
  66        6D+1        0.00000   0.00000   0.00000   0.00000   0.00000
  67        6D-1        0.00000   0.00000   0.00000   0.00116   0.00000
  68        6D+2        0.00000  -0.00035   0.00020   0.00000  -0.00006
  69        6D-2        0.00000   0.00000   0.00000   0.00000   0.00000
  70        7D 0       -0.00072   0.00967   0.00976   0.00000  -0.01463
  71        7D+1        0.00000   0.00000   0.00000   0.00000   0.00000
  72        7D-1        0.00000   0.00000   0.00000   0.01594   0.00000
  73        7D+2        0.00000  -0.00054   0.00037   0.00000  -0.00038
  74        7D-2        0.00000   0.00000   0.00000   0.00000   0.00000
  75        8D 0        0.00019   0.01243   0.01032   0.00000  -0.00692
  76        8D+1        0.00000   0.00000   0.00000   0.00000   0.00000
  77        8D-1        0.00000   0.00000   0.00000   0.02350   0.00000
  78        8D+2        0.00000   0.00083   0.00123   0.00000  -0.00006
  79        8D-2        0.00000   0.00000   0.00000   0.00000   0.00000
  80        9F 0       -0.00035   0.00361   0.00134   0.00000  -0.00302
  81        9F+1        0.00000   0.00000   0.00000   0.00000   0.00000
  82        9F-1        0.00000   0.00000   0.00000   0.00435   0.00000
  83        9F+2        0.00000   0.00032   0.00000   0.00000  -0.00017
  84        9F-2        0.00000   0.00000   0.00000   0.00000   0.00000
  85        9F+3        0.00000   0.00000   0.00000   0.00000   0.00000
  86        9F-3        0.00000   0.00000   0.00000   0.00019   0.00000
                          11        12        13        14        15
                           O         O         V         V         V
     Eigenvalues --    -0.39613  -0.20977  -0.13740  -0.00972   0.00758
   1 1   P  1S          0.00000   0.00000   0.00000  -0.00375  -0.00991
   2        2S          0.00000   0.00000   0.00000  -0.01026  -0.02747
   3        3S          0.00000   0.00000   0.00000   0.02134   0.05996
   4        4S          0.00000   0.00000   0.00000   0.04698   0.11508
   5        5S          0.00000   0.00000   0.00000  -0.08947  -0.28037
   6        6S          0.00000   0.00000   0.00000  -0.28134   0.42005
   7        7S          0.00000   0.00000   0.00000  -0.57142   1.89174
   8        7PX        -0.02028   0.00000  -0.03964   0.00000   0.00000
   9        7PY         0.00000  -0.06182   0.00000   0.00000   0.00000
  10        7PZ         0.00000   0.00000   0.00000   0.58456   0.71757
  11        8PX        -0.05784   0.00000  -0.08990   0.00000   0.00000
  12        8PY         0.00000  -0.09392   0.00000   0.00000   0.00000
  13        8PZ         0.00000   0.00000   0.00000  -0.03840   0.01431
  14        9PX        -0.09960   0.00000  -0.15230   0.00000   0.00000
  15        9PY         0.00000  -0.15947   0.00000   0.00000   0.00000
  16        9PZ         0.00000   0.00000   0.00000  -0.06323   0.02370
  17       10PX         0.11821   0.00000   0.17962   0.00000   0.00000
  18       10PY         0.00000   0.19216   0.00000   0.00000   0.00000
  19       10PZ         0.00000   0.00000   0.00000   0.06418  -0.02140
  20       11PX         0.26825   0.00000   0.53332   0.00000   0.00000
  21       11PY         0.00000   0.56005   0.00000   0.00000   0.00000
  22       11PZ         0.00000   0.00000   0.00000   0.34908  -0.25987
  23       12PX         0.11442   0.00000   0.49526   0.00000   0.00000
  24       12PY         0.00000   0.44939   0.00000   0.00000   0.00000
  25       12PZ         0.00000   0.00000   0.00000   0.46502  -1.14439
  26       13D 0        0.00000   0.00000   0.00000   0.03303   0.00126
  27       13D+1       -0.01342   0.00000   0.01460   0.00000   0.00000
  28       13D-1        0.00000   0.01497   0.00000   0.00000   0.00000
  29       13D+2        0.00000   0.00000   0.00000  -0.00037   0.00007
  30       13D-2        0.00000   0.00000   0.00000   0.00000   0.00000
  31       14D 0        0.00000   0.00000   0.00000   0.12881   0.03361
  32       14D+1       -0.06012   0.00000   0.06748   0.00000   0.00000
  33       14D-1        0.00000   0.07278   0.00000   0.00000   0.00000
  34       14D+2        0.00000   0.00000   0.00000   0.00079   0.00127
  35       14D-2        0.00000   0.00000   0.00000   0.00000   0.00000
  36       15D 0        0.00000   0.00000   0.00000   0.20219   0.18069
  37       15D+1       -0.02861   0.00000   0.08101   0.00000   0.00000
  38       15D-1        0.00000   0.08639   0.00000   0.00000   0.00000
  39       15D+2        0.00000   0.00000   0.00000  -0.00533   0.00139
  40       15D-2        0.00000   0.00000   0.00000   0.00000   0.00000
  41       16F 0        0.00000   0.00000   0.00000  -0.01923  -0.01546
  42       16F+1        0.01762   0.00000  -0.01786   0.00000   0.00000
  43       16F-1        0.00000  -0.01871   0.00000   0.00000   0.00000
  44       16F+2        0.00000   0.00000   0.00000   0.00062   0.00022
  45       16F-2        0.00000   0.00000   0.00000   0.00000   0.00000
  46       16F+3       -0.00034   0.00000  -0.00250   0.00000   0.00000
  47       16F-3        0.00000  -0.00078   0.00000   0.00000   0.00000
  48 2   O  1S          0.00000   0.00000   0.00000  -0.02966   0.00218
  49        2S          0.00000   0.00000   0.00000  -0.04938   0.00333
  50        2PX         0.24918   0.00000  -0.16411   0.00000   0.00000
  51        2PY         0.00000  -0.16639   0.00000   0.00000   0.00000
  52        2PZ         0.00000   0.00000   0.00000   0.07127   0.03211
  53        3S          0.00000   0.00000   0.00000   0.17313  -0.00030
  54        3PX         0.36371   0.00000  -0.24136   0.00000   0.00000
  55        3PY         0.00000  -0.24292   0.00000   0.00000   0.00000
  56        3PZ         0.00000   0.00000   0.00000   0.09944   0.04770
  57        4S          0.00000   0.00000   0.00000   0.20891  -0.13524
  58        4PX         0.32017   0.00000  -0.23839   0.00000   0.00000
  59        4PY         0.00000  -0.23308   0.00000   0.00000   0.00000
  60        4PZ         0.00000   0.00000   0.00000   0.18937  -0.10432
  61        5S          0.00000   0.00000   0.00000   0.59101  -1.68744
  62        5PX         0.03474   0.00000  -0.13749   0.00000   0.00000
  63        5PY         0.00000  -0.10601   0.00000   0.00000   0.00000
  64        5PZ         0.00000   0.00000   0.00000   0.02126  -0.53468
  65        6D 0        0.00000   0.00000   0.00000   0.00034  -0.00019
  66        6D+1        0.00126   0.00000   0.00008   0.00000   0.00000
  67        6D-1        0.00000   0.00003   0.00000   0.00000   0.00000
  68        6D+2        0.00000   0.00000   0.00000  -0.00016   0.00003
  69        6D-2        0.00000   0.00000   0.00000   0.00000   0.00000
  70        7D 0        0.00000   0.00000   0.00000   0.00052  -0.00076
  71        7D+1        0.01632   0.00000   0.00143   0.00000   0.00000
  72        7D-1        0.00000   0.00151   0.00000   0.00000   0.00000
  73        7D+2        0.00000   0.00000   0.00000   0.00002  -0.00005
  74        7D-2        0.00000   0.00000   0.00000   0.00000   0.00000
  75        8D 0        0.00000   0.00000   0.00000   0.03433  -0.06153
  76        8D+1        0.02913   0.00000  -0.00690   0.00000   0.00000
  77        8D-1        0.00000  -0.00698   0.00000   0.00000   0.00000
  78        8D+2        0.00000   0.00000   0.00000  -0.00258   0.00104
  79        8D-2        0.00000   0.00000   0.00000   0.00000   0.00000
  80        9F 0        0.00000   0.00000   0.00000   0.00229  -0.00215
  81        9F+1        0.00448   0.00000   0.00007   0.00000   0.00000
  82        9F-1        0.00000   0.00026   0.00000   0.00000   0.00000
  83        9F+2        0.00000   0.00000   0.00000  -0.00002   0.00003
  84        9F-2        0.00000   0.00000   0.00000   0.00000   0.00000
  85        9F+3        0.00013   0.00000   0.00001   0.00000   0.00000
  86        9F-3        0.00000  -0.00004   0.00000   0.00000   0.00000
                          16        17        18        19        20
                           V         V         V         V         V
     Eigenvalues --     0.04269   0.04358   0.08809   0.15449   0.15663
   1 1   P  1S          0.00000   0.00000   0.00591   0.00000   0.00022
   2        2S          0.00000   0.00000   0.01664   0.00000   0.00068
   3        3S          0.00000   0.00000  -0.03856   0.00000  -0.00210
   4        4S          0.00000   0.00000  -0.06020   0.00000  -0.00008
   5        5S          0.00000   0.00000   0.04794   0.00000  -0.00244
   6        6S          0.00000   0.00000   0.85041   0.00000  -0.08600
   7        7S          0.00000   0.00000  -0.47631   0.00000  -0.06301
   8        7PX         0.00000   1.58503   0.00000   0.00000   0.00000
   9        7PY         1.57038   0.00000   0.00000   0.00000   0.00000
  10        7PZ         0.00000   0.00000   1.75737   0.00000   0.01538
  11        8PX         0.00000   0.03837   0.00000   0.00000   0.00000
  12        8PY         0.03613   0.00000   0.00000   0.00000   0.00000
  13        8PZ         0.00000   0.00000   0.03327   0.00000  -0.00089
  14        9PX         0.00000   0.06818   0.00000   0.00000   0.00000
  15        9PY         0.06434   0.00000   0.00000   0.00000   0.00000
  16        9PZ         0.00000   0.00000   0.05754   0.00000  -0.00156
  17       10PX         0.00000  -0.10604   0.00000   0.00000   0.00000
  18       10PY        -0.10222   0.00000   0.00000   0.00000   0.00000
  19       10PZ         0.00000   0.00000  -0.07609   0.00000   0.00255
  20       11PX         0.00000  -0.17860   0.00000   0.00000   0.00000
  21       11PY        -0.17003   0.00000   0.00000   0.00000   0.00000
  22       11PZ         0.00000   0.00000  -0.22391   0.00000   0.01875
  23       12PX         0.00000  -0.78592   0.00000   0.00000   0.00000
  24       12PY        -0.72848   0.00000   0.00000   0.00000   0.00000
  25       12PZ         0.00000   0.00000  -1.56285   0.00000   0.04671
  26       13D 0        0.00000   0.00000  -0.03509   0.00000   0.00012
  27       13D+1        0.00000   0.00008   0.00000   0.00000   0.00000
  28       13D-1        0.00021   0.00000   0.00000   0.00000   0.00000
  29       13D+2        0.00000   0.00000  -0.00020   0.00000   0.05588
  30       13D-2        0.00000   0.00000   0.00000   0.05581   0.00000
  31       14D 0        0.00000   0.00000  -0.13323   0.00000   0.00090
  32       14D+1        0.00000   0.00143   0.00000   0.00000   0.00000
  33       14D-1        0.00078   0.00000   0.00000   0.00000   0.00000
  34       14D+2        0.00000   0.00000  -0.00229   0.00000   0.19479
  35       14D-2        0.00000   0.00000   0.00000   0.19577   0.00000
  36       15D 0        0.00000   0.00000  -0.20155   0.00000   0.00813
  37       15D+1        0.00000   0.00779   0.00000   0.00000   0.00000
  38       15D-1        0.00987   0.00000   0.00000   0.00000   0.00000
  39       15D+2        0.00000   0.00000  -0.00518   0.00000   0.87888
  40       15D-2        0.00000   0.00000   0.00000   0.87919   0.00000
  41       16F 0        0.00000   0.00000   0.00553   0.00000   0.00305
  42       16F+1        0.00000  -0.00259   0.00000   0.00000   0.00000
  43       16F-1       -0.00266   0.00000   0.00000   0.00000   0.00000
  44       16F+2        0.00000   0.00000  -0.00062   0.00000   0.00160
  45       16F-2        0.00000   0.00000   0.00000   0.00246   0.00000
  46       16F+3        0.00000   0.00055   0.00000   0.00000   0.00000
  47       16F-3        0.00005   0.00000   0.00000   0.00000   0.00000
  48 2   O  1S          0.00000   0.00000   0.00727   0.00000   0.00119
  49        2S          0.00000   0.00000   0.01146   0.00000   0.00194
  50        2PX         0.00000   0.00493   0.00000   0.00000   0.00000
  51        2PY         0.00136   0.00000   0.00000   0.00000   0.00000
  52        2PZ         0.00000   0.00000  -0.10786   0.00000  -0.00149
  53        3S          0.00000   0.00000  -0.02674   0.00000  -0.00604
  54        3PX         0.00000   0.00024   0.00000   0.00000   0.00000
  55        3PY        -0.00619   0.00000   0.00000   0.00000   0.00000
  56        3PZ         0.00000   0.00000  -0.15584   0.00000  -0.00428
  57        4S          0.00000   0.00000  -0.19213   0.00000  -0.03222
  58        4PX         0.00000   0.04052   0.00000   0.00000   0.00000
  59        4PY         0.04084   0.00000   0.00000   0.00000   0.00000
  60        4PZ         0.00000   0.00000  -0.23250   0.00000   0.01248
  61        5S          0.00000   0.00000  -0.21902   0.00000   0.18156
  62        5PX         0.00000  -0.01736   0.00000   0.00000   0.00000
  63        5PY        -0.05210   0.00000   0.00000   0.00000   0.00000
  64        5PZ         0.00000   0.00000  -0.17131   0.00000   0.06276
  65        6D 0        0.00000   0.00000   0.00008   0.00000   0.00003
  66        6D+1        0.00000  -0.00038   0.00000   0.00000   0.00000
  67        6D-1       -0.00037   0.00000   0.00000   0.00000   0.00000
  68        6D+2        0.00000   0.00000   0.00004   0.00000   0.00075
  69        6D-2        0.00000   0.00000   0.00000   0.00073   0.00000
  70        7D 0        0.00000   0.00000  -0.00272   0.00000  -0.00086
  71        7D+1        0.00000  -0.00532   0.00000   0.00000   0.00000
  72        7D-1       -0.00498   0.00000   0.00000   0.00000   0.00000
  73        7D+2        0.00000   0.00000  -0.00007   0.00000   0.01097
  74        7D-2        0.00000   0.00000   0.00000   0.01104   0.00000
  75        8D 0        0.00000   0.00000  -0.00202   0.00000   0.00643
  76        8D+1        0.00000  -0.00672   0.00000   0.00000   0.00000
  77        8D-1       -0.00646   0.00000   0.00000   0.00000   0.00000
  78        8D+2        0.00000   0.00000   0.00088   0.00000   0.01464
  79        8D-2        0.00000   0.00000   0.00000   0.01358   0.00000
  80        9F 0        0.00000   0.00000  -0.00189   0.00000   0.00007
  81        9F+1        0.00000  -0.00125   0.00000   0.00000   0.00000
  82        9F-1       -0.00121   0.00000   0.00000   0.00000   0.00000
  83        9F+2        0.00000   0.00000  -0.00002   0.00000   0.00244
  84        9F-2        0.00000   0.00000   0.00000   0.00244   0.00000
  85        9F+3        0.00000  -0.00001   0.00000   0.00000   0.00000
  86        9F-3       -0.00001   0.00000   0.00000   0.00000   0.00000
                          21        22        23        24        25
                           V         V         V         V         V
     Eigenvalues --     0.18701   0.19131   0.19221   0.20959   0.26832
   1 1   P  1S          0.00998   0.00000   0.00000  -0.00868   0.00000
   2        2S          0.02804   0.00000   0.00000  -0.02402   0.00000
   3        3S         -0.06441   0.00000   0.00000   0.05183   0.00000
   4        4S         -0.10799   0.00000   0.00000   0.10901   0.00000
   5        5S          0.11501   0.00000   0.00000  -0.05737   0.00000
   6        6S          3.14245   0.00000   0.00000  -4.63044   0.00000
   7        7S          0.51162   0.00000   0.00000  -2.80934   0.00000
   8        7PX         0.00000   0.00000  -0.20530   0.00000   0.00000
   9        7PY         0.00000  -0.10892   0.00000   0.00000   1.27108
  10        7PZ         1.42143   0.00000   0.00000  -0.82296   0.00000
  11        8PX         0.00000   0.00000  -0.01511   0.00000   0.00000
  12        8PY         0.00000  -0.01737   0.00000   0.00000  -0.06350
  13        8PZ         0.00864   0.00000   0.00000   0.04300   0.00000
  14        9PX         0.00000   0.00000  -0.02405   0.00000   0.00000
  15        9PY         0.00000  -0.02743   0.00000   0.00000  -0.09861
  16        9PZ         0.01090   0.00000   0.00000   0.07609   0.00000
  17       10PX         0.00000   0.00000   0.02269   0.00000   0.00000
  18       10PY         0.00000   0.02531   0.00000   0.00000   0.08289
  19       10PZ         0.01505   0.00000   0.00000  -0.15160   0.00000
  20       11PX         0.00000   0.00000   0.14927   0.00000   0.00000
  21       11PY         0.00000   0.18382   0.00000   0.00000   0.80691
  22       11PZ        -0.30229   0.00000   0.00000   0.40065   0.00000
  23       12PX         0.00000   0.00000  -0.82146   0.00000   0.00000
  24       12PY         0.00000  -0.91639   0.00000   0.00000  -1.20008
  25       12PZ        -2.38425   0.00000   0.00000   4.93154   0.00000
  26       13D 0        0.00161   0.00000   0.00000  -0.00653   0.00000
  27       13D+1        0.00000   0.00000  -0.00791   0.00000   0.00000
  28       13D-1        0.00000  -0.01026   0.00000   0.00000  -0.04034
  29       13D+2        0.00036   0.00000   0.00000  -0.00086   0.00000
  30       13D-2        0.00000   0.00000   0.00000   0.00000   0.00000
  31       14D 0        0.02499   0.00000   0.00000  -0.14523   0.00000
  32       14D+1        0.00000   0.00000  -0.04190   0.00000   0.00000
  33       14D-1        0.00000  -0.05293   0.00000   0.00000  -0.14123
  34       14D+2        0.00152   0.00000   0.00000  -0.00222   0.00000
  35       14D-2        0.00000   0.00000   0.00000   0.00000   0.00000
  36       15D 0        0.27856   0.00000   0.00000  -0.97536   0.00000
  37       15D+1        0.00000   0.00000  -0.09810   0.00000   0.00000
  38       15D-1        0.00000  -0.13183   0.00000   0.00000  -0.84045
  39       15D+2        0.00293   0.00000   0.00000  -0.01496   0.00000
  40       15D-2        0.00000   0.00000   0.00000   0.00000   0.00000
  41       16F 0       -0.01437   0.00000   0.00000   0.07326   0.00000
  42       16F+1        0.00000   0.00000  -0.01329   0.00000   0.00000
  43       16F-1        0.00000  -0.01383   0.00000   0.00000   0.00019
  44       16F+2       -0.00005   0.00000   0.00000  -0.00035   0.00000
  45       16F-2        0.00000   0.00000   0.00000   0.00000   0.00000
  46       16F+3        0.00000   0.00000   0.00040   0.00000   0.00000
  47       16F-3        0.00000   0.00055   0.00000   0.00000   0.00077
  48 2   O  1S          0.02231   0.00000   0.00000   0.02327   0.00000
  49        2S          0.03626   0.00000   0.00000   0.03964   0.00000
  50        2PX         0.00000   0.00000  -0.14085   0.00000   0.00000
  51        2PY         0.00000  -0.13802   0.00000   0.00000  -0.03325
  52        2PZ         0.03730   0.00000   0.00000   0.01401   0.00000
  53        3S         -0.09840   0.00000   0.00000  -0.17845   0.00000
  54        3PX         0.00000   0.00000  -0.14987   0.00000   0.00000
  55        3PY         0.00000  -0.14497   0.00000   0.00000  -0.05127
  56        3PZ         0.00704   0.00000   0.00000  -0.02461   0.00000
  57        4S         -0.51645   0.00000   0.00000   0.12968   0.00000
  58        4PX         0.00000   0.00000  -0.55018   0.00000   0.00000
  59        4PY         0.00000  -0.53797   0.00000   0.00000  -0.11840
  60        4PZ         0.07534   0.00000   0.00000   0.81753   0.00000
  61        5S         -2.67435   0.00000   0.00000   8.18387   0.00000
  62        5PX         0.00000   0.00000   1.67081   0.00000   0.00000
  63        5PY         0.00000   1.63306   0.00000   0.00000  -0.91676
  64        5PZ        -2.64256   0.00000   0.00000   1.82546   0.00000
  65        6D 0        0.00051   0.00000   0.00000  -0.00043   0.00000
  66        6D+1        0.00000   0.00000   0.00049   0.00000   0.00000
  67        6D-1        0.00000   0.00052   0.00000   0.00000   0.00154
  68        6D+2        0.00007   0.00000   0.00000   0.00012   0.00000
  69        6D-2        0.00000   0.00000   0.00000   0.00000   0.00000
  70        7D 0        0.01588   0.00000   0.00000   0.00212   0.00000
  71        7D+1        0.00000   0.00000  -0.00937   0.00000   0.00000
  72        7D-1        0.00000  -0.00781   0.00000   0.00000   0.02298
  73        7D+2        0.00020   0.00000   0.00000  -0.00027   0.00000
  74        7D-2        0.00000   0.00000   0.00000   0.00000   0.00000
  75        8D 0       -0.07016   0.00000   0.00000   0.19889   0.00000
  76        8D+1        0.00000   0.00000   0.01527   0.00000   0.00000
  77        8D-1        0.00000   0.01468   0.00000   0.00000  -0.01165
  78        8D+2       -0.00035   0.00000   0.00000   0.00268   0.00000
  79        8D-2        0.00000   0.00000   0.00000   0.00000   0.00000
  80        9F 0       -0.00029   0.00000   0.00000   0.00842   0.00000
  81        9F+1        0.00000   0.00000  -0.00196   0.00000   0.00000
  82        9F-1        0.00000  -0.00176   0.00000   0.00000   0.00136
  83        9F+2        0.00002   0.00000   0.00000   0.00001   0.00000
  84        9F-2        0.00000   0.00000   0.00000   0.00000   0.00000
  85        9F+3        0.00000   0.00000   0.00002   0.00000   0.00000
  86        9F-3        0.00000  -0.00001   0.00000   0.00000   0.00005
                          26        27        28        29        30
                           V         V         V         V         V
     Eigenvalues --     0.26985   0.28947   0.29188   0.31178   0.46722
   1 1   P  1S          0.00000   0.00000   0.00000  -0.00281  -0.01730
   2        2S          0.00000   0.00000   0.00000  -0.00748  -0.04673
   3        3S          0.00000   0.00000   0.00000   0.01352   0.09122
   4        4S          0.00000   0.00000   0.00000   0.04806   0.26717
   5        5S          0.00000   0.00000   0.00000  -0.20552  -0.77747
   6        6S          0.00000   0.00000   0.00000  -1.35804  -0.62147
   7        7S          0.00000   0.00000   0.00000  -0.54351  -0.91965
   8        7PX        -1.30199   0.00000  -1.03513   0.00000   0.00000
   9        7PY         0.00000  -1.10611   0.00000   0.00000   0.00000
  10        7PZ         0.00000   0.00000   0.00000   0.96173   0.58001
  11        8PX         0.06666   0.00000   0.04657   0.00000   0.00000
  12        8PY         0.00000   0.04632   0.00000   0.00000   0.00000
  13        8PZ         0.00000   0.00000   0.00000  -0.04336  -0.07922
  14        9PX         0.10338   0.00000   0.07258   0.00000   0.00000
  15        9PY         0.00000   0.07182   0.00000   0.00000   0.00000
  16        9PZ         0.00000   0.00000   0.00000  -0.06993  -0.11838
  17       10PX        -0.08421   0.00000  -0.06474   0.00000   0.00000
  18       10PY         0.00000  -0.06299   0.00000   0.00000   0.00000
  19       10PZ         0.00000   0.00000   0.00000   0.07794   0.05405
  20       11PX        -0.84732   0.00000  -0.57456   0.00000   0.00000
  21       11PY         0.00000  -0.59303   0.00000   0.00000   0.00000
  22       11PZ         0.00000   0.00000   0.00000   0.69214   1.52664
  23       12PX         1.34663   0.00000   2.46411   0.00000   0.00000
  24       12PY         0.00000   2.52497   0.00000   0.00000   0.00000
  25       12PZ         0.00000   0.00000   0.00000  -1.19451   0.32290
  26       13D 0        0.00000   0.00000   0.00000   0.02662   0.01619
  27       13D+1        0.03939   0.00000  -0.04418   0.00000   0.00000
  28       13D-1        0.00000  -0.04315   0.00000   0.00000   0.00000
  29       13D+2        0.00000   0.00000   0.00000  -0.00170  -0.00057
  30       13D-2        0.00000   0.00000   0.00000   0.00000   0.00000
  31       14D 0        0.00000   0.00000   0.00000   0.06922   0.09099
  32       14D+1        0.13870   0.00000  -0.16370   0.00000   0.00000
  33       14D-1        0.00000  -0.16677   0.00000   0.00000   0.00000
  34       14D+2        0.00000   0.00000   0.00000  -0.00589  -0.00441
  35       14D-2        0.00000   0.00000   0.00000   0.00000   0.00000
  36       15D 0        0.00000   0.00000   0.00000   0.81515  -1.50559
  37       15D+1        0.79501   0.00000  -1.08950   0.00000   0.00000
  38       15D-1        0.00000  -1.04123   0.00000   0.00000   0.00000
  39       15D+2        0.00000   0.00000   0.00000  -0.02121   0.00812
  40       15D-2        0.00000   0.00000   0.00000   0.00000   0.00000
  41       16F 0        0.00000   0.00000   0.00000  -0.01192  -0.01690
  42       16F+1       -0.00112   0.00000   0.01649   0.00000   0.00000
  43       16F-1        0.00000   0.01307   0.00000   0.00000   0.00000
  44       16F+2        0.00000   0.00000   0.00000  -0.00066   0.00060
  45       16F-2        0.00000   0.00000   0.00000   0.00000   0.00000
  46       16F+3       -0.00053   0.00000   0.00227   0.00000   0.00000
  47       16F-3        0.00000   0.00150   0.00000   0.00000   0.00000
  48 2   O  1S          0.00000   0.00000   0.00000   0.02196  -0.02704
  49        2S          0.00000   0.00000   0.00000   0.03398  -0.04420
  50        2PX         0.04165   0.00000  -0.05555   0.00000   0.00000
  51        2PY         0.00000  -0.05559   0.00000   0.00000   0.00000
  52        2PZ         0.00000   0.00000   0.00000   0.04970   0.15768
  53        3S          0.00000   0.00000   0.00000  -0.05095   0.10813
  54        3PX         0.06274   0.00000  -0.05743   0.00000   0.00000
  55        3PY         0.00000  -0.05648   0.00000   0.00000   0.00000
  56        3PZ         0.00000   0.00000   0.00000   0.04698   0.24616
  57        4S          0.00000   0.00000   0.00000  -1.36287   1.37663
  58        4PX         0.13847   0.00000  -0.32210   0.00000   0.00000
  59        4PY         0.00000  -0.31377   0.00000   0.00000   0.00000
  60        4PZ         0.00000   0.00000   0.00000   0.16093   0.91367
  61        5S          0.00000   0.00000   0.00000   2.61021   1.60617
  62        5PX         0.78647   0.00000  -1.05838   0.00000   0.00000
  63        5PY         0.00000  -1.00895   0.00000   0.00000   0.00000
  64        5PZ         0.00000   0.00000   0.00000   1.28297  -0.45260
  65        6D 0        0.00000   0.00000   0.00000   0.00040  -0.00282
  66        6D+1       -0.00165   0.00000  -0.00019   0.00000   0.00000
  67        6D-1        0.00000  -0.00022   0.00000   0.00000   0.00000
  68        6D+2        0.00000   0.00000   0.00000   0.00014  -0.00012
  69        6D-2        0.00000   0.00000   0.00000   0.00000   0.00000
  70        7D 0        0.00000   0.00000   0.00000  -0.02923  -0.00569
  71        7D+1       -0.02148   0.00000   0.01713   0.00000   0.00000
  72        7D-1        0.00000   0.01707   0.00000   0.00000   0.00000
  73        7D+2        0.00000   0.00000   0.00000  -0.00072  -0.00006
  74        7D-2        0.00000   0.00000   0.00000   0.00000   0.00000
  75        8D 0        0.00000   0.00000   0.00000   0.10574   0.03285
  76        8D+1        0.00430   0.00000  -0.08369   0.00000   0.00000
  77        8D-1        0.00000  -0.08025   0.00000   0.00000   0.00000
  78        8D+2        0.00000   0.00000   0.00000   0.00474  -0.00139
  79        8D-2        0.00000   0.00000   0.00000   0.00000   0.00000
  80        9F 0        0.00000   0.00000   0.00000   0.00125   0.00310
  81        9F+1       -0.00136   0.00000  -0.00321   0.00000   0.00000
  82        9F-1        0.00000  -0.00302   0.00000   0.00000   0.00000
  83        9F+2        0.00000   0.00000   0.00000  -0.00004  -0.00006
  84        9F-2        0.00000   0.00000   0.00000   0.00000   0.00000
  85        9F+3       -0.00005   0.00000   0.00005   0.00000   0.00000
  86        9F-3        0.00000   0.00004   0.00000   0.00000   0.00000
                          31        32        33        34        35
                           V         V         V         V         V
     Eigenvalues --     0.70670   0.77512   0.77521   0.78049   0.78117
   1 1   P  1S         -0.02709   0.00000   0.00000   0.00000   0.00060
   2        2S         -0.07319   0.00000   0.00000   0.00000   0.00164
   3        3S          0.14213   0.00000   0.00000   0.00000  -0.00341
   4        4S          0.44984   0.00000   0.00000   0.00000  -0.00919
   5        5S         -2.60224   0.00000   0.00000   0.00000   0.06151
   6        6S         11.98677   0.00000   0.00000   0.00000  -0.29024
   7        7S          1.69018   0.00000   0.00000   0.00000  -0.03671
   8        7PX         0.00000   0.00000  -0.04602   0.00000   0.00000
   9        7PY         0.00000  -0.03145   0.00000   0.00000   0.00000
  10        7PZ         1.09199   0.00000   0.00000   0.00000  -0.03084
  11        8PX         0.00000   0.00000   0.00666   0.00000   0.00000
  12        8PY         0.00000   0.00529   0.00000   0.00000   0.00000
  13        8PZ         0.03413   0.00000   0.00000   0.00000  -0.00186
  14        9PX         0.00000   0.00000   0.00300   0.00000   0.00000
  15        9PY         0.00000   0.00136   0.00000   0.00000   0.00000
  16        9PZ         0.04733   0.00000   0.00000   0.00000  -0.00317
  17       10PX         0.00000   0.00000   0.06932   0.00000   0.00000
  18       10PY         0.00000   0.06772   0.00000   0.00000   0.00000
  19       10PZ         0.07486   0.00000   0.00000   0.00000   0.00315
  20       11PX         0.00000   0.00000  -0.56703   0.00000   0.00000
  21       11PY         0.00000  -0.54706   0.00000   0.00000   0.00000
  22       11PZ        -2.60630   0.00000   0.00000   0.00000   0.07335
  23       12PX         0.00000   0.00000  -0.64660   0.00000   0.00000
  24       12PY         0.00000  -0.67281   0.00000   0.00000   0.00000
  25       12PZ        -5.76593   0.00000   0.00000   0.00000   0.15059
  26       13D 0       -0.03716   0.00000   0.00000   0.00000   0.00089
  27       13D+1        0.00000   0.00000  -0.12585   0.00000   0.00000
  28       13D-1        0.00000  -0.12518   0.00000   0.00000   0.00000
  29       13D+2        0.00025   0.00000   0.00000   0.00000   0.04942
  30       13D-2        0.00000   0.00000   0.00000   0.05096   0.00000
  31       14D 0        0.24830   0.00000   0.00000   0.00000  -0.00565
  32       14D+1        0.00000   0.00000  -0.67790   0.00000   0.00000
  33       14D-1        0.00000  -0.67993   0.00000   0.00000   0.00000
  34       14D+2        0.00653   0.00000   0.00000   0.00000   0.35786
  35       14D-2        0.00000   0.00000   0.00000   0.36908   0.00000
  36       15D 0        1.90819   0.00000   0.00000   0.00000  -0.06288
  37       15D+1        0.00000   0.00000   1.36445   0.00000   0.00000
  38       15D-1        0.00000   1.37326   0.00000   0.00000   0.00000
  39       15D+2       -0.01367   0.00000   0.00000   0.00000  -0.56949
  40       15D-2        0.00000   0.00000   0.00000  -0.57471   0.00000
  41       16F 0       -0.13708   0.00000   0.00000   0.00000   0.00661
  42       16F+1        0.00000   0.00000  -0.11222   0.00000   0.00000
  43       16F-1        0.00000  -0.11766   0.00000   0.00000   0.00000
  44       16F+2       -0.00488   0.00000   0.00000   0.00000  -0.15181
  45       16F-2        0.00000   0.00000   0.00000  -0.15123   0.00000
  46       16F+3        0.00000   0.00000   0.00402   0.00000   0.00000
  47       16F-3        0.00000   0.00240   0.00000   0.00000   0.00000
  48 2   O  1S          0.00635   0.00000   0.00000   0.00000   0.00001
  49        2S          0.00519   0.00000   0.00000   0.00000   0.00039
  50        2PX         0.00000   0.00000  -0.06580   0.00000   0.00000
  51        2PY         0.00000  -0.06527   0.00000   0.00000   0.00000
  52        2PZ         0.00444   0.00000   0.00000   0.00000  -0.00159
  53        3S          0.17711   0.00000   0.00000   0.00000  -0.01229
  54        3PX         0.00000   0.00000  -0.17430   0.00000   0.00000
  55        3PY         0.00000  -0.17450   0.00000   0.00000   0.00000
  56        3PZ         0.02790   0.00000   0.00000   0.00000  -0.00589
  57        4S         -2.39549   0.00000   0.00000   0.00000   0.10064
  58        4PX         0.00000   0.00000   0.56033   0.00000   0.00000
  59        4PY         0.00000   0.57520   0.00000   0.00000   0.00000
  60        4PZ        -2.06226   0.00000   0.00000   0.00000   0.07335
  61        5S        -10.50696   0.00000   0.00000   0.00000   0.23001
  62        5PX         0.00000   0.00000   0.95479   0.00000   0.00000
  63        5PY         0.00000   0.95116   0.00000   0.00000   0.00000
  64        5PZ        -3.48773   0.00000   0.00000   0.00000   0.06141
  65        6D 0       -0.00046   0.00000   0.00000   0.00000  -0.00012
  66        6D+1        0.00000   0.00000   0.00970   0.00000   0.00000
  67        6D-1        0.00000   0.00969   0.00000   0.00000   0.00000
  68        6D+2        0.00038   0.00000   0.00000   0.00000   0.01494
  69        6D-2        0.00000   0.00000   0.00000   0.01487   0.00000
  70        7D 0       -0.02330   0.00000   0.00000   0.00000   0.00075
  71        7D+1        0.00000   0.00000   0.00894   0.00000   0.00000
  72        7D-1        0.00000   0.00934   0.00000   0.00000   0.00000
  73        7D+2       -0.00021   0.00000   0.00000   0.00000  -0.00036
  74        7D-2        0.00000   0.00000   0.00000  -0.00032   0.00000
  75        8D 0       -0.69058   0.00000   0.00000   0.00000   0.01003
  76        8D+1        0.00000   0.00000   0.76644   0.00000   0.00000
  77        8D-1        0.00000   0.76389   0.00000   0.00000   0.00000
  78        8D+2        0.02201   0.00000   0.00000   0.00000   0.91526
  79        8D-2        0.00000   0.00000   0.00000   0.91128   0.00000
  80        9F 0       -0.02733   0.00000   0.00000   0.00000   0.00048
  81        9F+1        0.00000   0.00000   0.01744   0.00000   0.00000
  82        9F-1        0.00000   0.01749   0.00000   0.00000   0.00000
  83        9F+2        0.00019   0.00000   0.00000   0.00000   0.00767
  84        9F-2        0.00000   0.00000   0.00000   0.00772   0.00000
  85        9F+3        0.00000   0.00000   0.00015   0.00000   0.00000
  86        9F-3        0.00000   0.00013   0.00000   0.00000   0.00000
                          36        37        38        39        40
                           V         V         V         V         V
     Eigenvalues --     0.82391   0.82588   0.87942   1.00547   1.00786
   1 1   P  1S          0.00000   0.00009  -0.00175   0.00000   0.00000
   2        2S          0.00000   0.00041  -0.00299   0.00000   0.00000
   3        3S          0.00000  -0.00233  -0.01051   0.00000   0.00000
   4        4S          0.00000   0.00461   0.09757   0.00000   0.00000
   5        5S          0.00000  -0.02378  -0.63237   0.00000   0.00000
   6        6S          0.00000   0.01408   0.06800   0.00000   0.00000
   7        7S          0.00000  -0.01221  -0.21839   0.00000   0.00000
   8        7PX         0.00000   0.00000   0.00000   0.00000   0.23727
   9        7PY         0.00000   0.00000   0.00000   0.23799   0.00000
  10        7PZ         0.00000   0.01080   0.15048   0.00000   0.00000
  11        8PX         0.00000   0.00000   0.00000   0.00000  -0.00747
  12        8PY         0.00000   0.00000   0.00000  -0.00747   0.00000
  13        8PZ         0.00000   0.00129   0.05978   0.00000   0.00000
  14        9PX         0.00000   0.00000   0.00000   0.00000  -0.01340
  15        9PY         0.00000   0.00000   0.00000  -0.01344   0.00000
  16        9PZ         0.00000   0.00309   0.11669   0.00000   0.00000
  17       10PX         0.00000   0.00000   0.00000   0.00000   0.03215
  18       10PY         0.00000   0.00000   0.00000   0.03287   0.00000
  19       10PZ         0.00000  -0.01081  -0.32529   0.00000   0.00000
  20       11PX         0.00000   0.00000   0.00000   0.00000   0.09634
  21       11PY         0.00000   0.00000   0.00000   0.09690   0.00000
  22       11PZ         0.00000   0.01960   0.34009   0.00000   0.00000
  23       12PX         0.00000   0.00000   0.00000   0.00000   0.07299
  24       12PY         0.00000   0.00000   0.00000   0.07690   0.00000
  25       12PZ         0.00000  -0.01777  -0.39290   0.00000   0.00000
  26       13D 0        0.00000   0.00252   0.10580   0.00000   0.00000
  27       13D+1        0.00000   0.00000   0.00000   0.00000  -0.03184
  28       13D-1        0.00000   0.00000   0.00000  -0.03031   0.00000
  29       13D+2        0.00000   0.13753  -0.00444   0.00000   0.00000
  30       13D-2        0.13651   0.00000   0.00000   0.00000   0.00000
  31       14D 0        0.00000   0.01836   0.50132   0.00000   0.00000
  32       14D+1        0.00000   0.00000   0.00000   0.00000  -0.20277
  33       14D-1        0.00000   0.00000   0.00000  -0.19775   0.00000
  34       14D+2        0.00000   0.94652  -0.02481   0.00000   0.00000
  35       14D-2        0.94277   0.00000   0.00000   0.00000   0.00000
  36       15D 0        0.00000  -0.01095  -0.06939   0.00000   0.00000
  37       15D+1        0.00000   0.00000   0.00000   0.00000   0.08949
  38       15D-1        0.00000   0.00000   0.00000   0.08368   0.00000
  39       15D+2        0.00000  -0.50682   0.00942   0.00000   0.00000
  40       15D-2       -0.50164   0.00000   0.00000   0.00000   0.00000
  41       16F 0        0.00000   0.00662   0.08284   0.00000   0.00000
  42       16F+1        0.00000   0.00000   0.00000   0.00000  -0.10994
  43       16F-1        0.00000   0.00000   0.00000  -0.10718   0.00000
  44       16F+2        0.00000   0.08192  -0.00411   0.00000   0.00000
  45       16F-2        0.08548   0.00000   0.00000   0.00000   0.00000
  46       16F+3        0.00000   0.00000   0.00000   0.00000   0.00109
  47       16F-3        0.00000   0.00000   0.00000   0.00105   0.00000
  48 2   O  1S          0.00000   0.00083   0.02318   0.00000   0.00000
  49        2S          0.00000   0.00139   0.04017   0.00000   0.00000
  50        2PX         0.00000   0.00000   0.00000   0.00000  -0.22375
  51        2PY         0.00000   0.00000   0.00000  -0.22243   0.00000
  52        2PZ         0.00000  -0.00107  -0.00762   0.00000   0.00000
  53        3S          0.00000  -0.00506  -0.16454   0.00000   0.00000
  54        3PX         0.00000   0.00000   0.00000   0.00000  -0.70789
  55        3PY         0.00000   0.00000   0.00000  -0.70056   0.00000
  56        3PZ         0.00000   0.00313   0.15116   0.00000   0.00000
  57        4S          0.00000   0.00053  -0.15415   0.00000   0.00000
  58        4PX         0.00000   0.00000   0.00000   0.00000   1.50597
  59        4PY         0.00000   0.00000   0.00000   1.50770   0.00000
  60        4PZ         0.00000  -0.01102  -0.60700   0.00000   0.00000
  61        5S          0.00000   0.01676   0.48578   0.00000   0.00000
  62        5PX         0.00000   0.00000   0.00000   0.00000  -0.99791
  63        5PY         0.00000   0.00000   0.00000  -1.00722   0.00000
  64        5PZ         0.00000   0.01577   0.76368   0.00000   0.00000
  65        6D 0        0.00000   0.00033   0.01374   0.00000   0.00000
  66        6D+1        0.00000   0.00000   0.00000   0.00000  -0.00951
  67        6D-1        0.00000   0.00000   0.00000  -0.00964   0.00000
  68        6D+2        0.00000  -0.00632   0.00041   0.00000   0.00000
  69        6D-2       -0.00649   0.00000   0.00000   0.00000   0.00000
  70        7D 0        0.00000   0.00073   0.03609   0.00000   0.00000
  71        7D+1        0.00000   0.00000   0.00000   0.00000  -0.01145
  72        7D-1        0.00000   0.00000   0.00000  -0.01123   0.00000
  73        7D+2        0.00000   0.00130   0.00044   0.00000   0.00000
  74        7D-2        0.00122   0.00000   0.00000   0.00000   0.00000
  75        8D 0        0.00000   0.02065   0.79987   0.00000   0.00000
  76        8D+1        0.00000   0.00000   0.00000   0.00000  -0.53516
  77        8D-1        0.00000   0.00000   0.00000  -0.53983   0.00000
  78        8D+2        0.00000  -0.35737   0.01673   0.00000   0.00000
  79        8D-2       -0.36727   0.00000   0.00000   0.00000   0.00000
  80        9F 0        0.00000   0.00012   0.00682   0.00000   0.00000
  81        9F+1        0.00000   0.00000   0.00000   0.00000   0.00086
  82        9F-1        0.00000   0.00000   0.00000   0.00093   0.00000
  83        9F+2        0.00000   0.00495  -0.00015   0.00000   0.00000
  84        9F-2        0.00486   0.00000   0.00000   0.00000   0.00000
  85        9F+3        0.00000   0.00000   0.00000   0.00000   0.00015
  86        9F-3        0.00000   0.00000   0.00000   0.00011   0.00000
                          41        42        43        44        45
                           V         V         V         V         V
     Eigenvalues --     1.03516   1.20322   1.20589   1.23161   1.28083
   1 1   P  1S         -0.00070   0.00000   0.00000  -0.00797   0.00000
   2        2S          0.00007   0.00000   0.00000  -0.01954   0.00000
   3        3S         -0.01890   0.00000   0.00000   0.01796   0.00000
   4        4S          0.09187   0.00000   0.00000   0.23963   0.00000
   5        5S         -0.27459   0.00000   0.00000  -1.40041   0.00000
   6        6S         -2.04041   0.00000   0.00000  -2.55827   0.00000
   7        7S         -0.57109   0.00000   0.00000  -0.81478   0.00000
   8        7PX         0.00000   0.14344   0.00000   0.00000   0.00000
   9        7PY         0.00000   0.00000   0.13368   0.00000   0.00172
  10        7PZ        -0.04295   0.00000   0.00000   0.56055   0.00000
  11        8PX         0.00000   0.02511   0.00000   0.00000   0.00000
  12        8PY         0.00000   0.00000   0.02320   0.00000   0.00041
  13        8PZ         0.00798   0.00000   0.00000   0.02857   0.00000
  14        9PX         0.00000   0.04614   0.00000   0.00000   0.00000
  15        9PY         0.00000   0.00000   0.04164   0.00000   0.00144
[...]
  13        8PZ         0.68025   0.34008   0.34017  -0.00009
  14        9PX         1.28416   0.64199   0.64217  -0.00018
  15        9PY         1.27763   0.63496   0.64267  -0.00771
  16        9PZ         1.27775   0.63887   0.63888  -0.00002
  17       10PX         0.14214   0.07136   0.07078   0.00059
  18       10PY         0.23842   0.17202   0.06640   0.10562
  19       10PZ         0.26108   0.12976   0.13132  -0.00155
  20       11PX         0.30831   0.15642   0.15190   0.00452
  21       11PY         0.70365   0.56927   0.13438   0.43489
  22       11PZ         0.45325   0.22436   0.22889  -0.00452
  23       12PX         0.10804   0.05398   0.05406  -0.00007
  24       12PY         0.36251   0.31148   0.05103   0.26045
  25       12PZ         0.00122  -0.00183   0.00306  -0.00489
  26       13D 0        0.00432   0.00221   0.00211   0.00010
  27       13D+1        0.00192   0.00094   0.00098  -0.00004
  28       13D-1        0.00295   0.00190   0.00105   0.00084
  29       13D+2        0.00003   0.00000   0.00002  -0.00002
  30       13D-2        0.00000   0.00000   0.00000   0.00000
  31       14D 0        0.05677   0.02931   0.02746   0.00185
  32       14D+1        0.03320   0.01627   0.01693  -0.00066
  33       14D-1        0.05063   0.03244   0.01819   0.01425
  34       14D+2        0.00064   0.00009   0.00054  -0.00045
  35       14D-2        0.00000   0.00000   0.00000   0.00000
  36       15D 0       -0.00305  -0.00111  -0.00194   0.00083
  37       15D+1        0.02310   0.01109   0.01201  -0.00092
  38       15D-1        0.05392   0.04093   0.01299   0.02795
  39       15D+2        0.00046   0.00009   0.00038  -0.00029
  40       15D-2        0.00000   0.00000   0.00000   0.00000
  41       16F 0        0.01002   0.00462   0.00540  -0.00078
  42       16F+1        0.01059   0.00499   0.00560  -0.00061
  43       16F-1        0.01479   0.00828   0.00651   0.00176
  44       16F+2        0.00007   0.00002   0.00005  -0.00004
  45       16F-2        0.00000   0.00000   0.00000   0.00000
  46       16F+3        0.00003   0.00000   0.00003  -0.00003
  47       16F-3        0.00002   0.00000   0.00002  -0.00002
  48 2   O  1S          1.08407   0.54197   0.54210  -0.00013
  49        2S          0.90899   0.45453   0.45447   0.00006
  50        2PX         0.27596   0.13831   0.13765   0.00066
  51        2PY         0.34449   0.20415   0.14034   0.06382
  52        2PZ         0.33034   0.16586   0.16449   0.00137
  53        3S          1.03788   0.52325   0.51463   0.00862
  54        3PX         0.58057   0.29101   0.28956   0.00146
  55        3PY         0.70118   0.40719   0.29399   0.11320
  56        3PZ         0.68533   0.34438   0.34095   0.00342
  57        4S          0.86268   0.42920   0.43348  -0.00428
  58        4PX         0.52120   0.25894   0.26226  -0.00333
  59        4PY         0.56848   0.29683   0.27165   0.02518
  60        4PZ         0.40180   0.19913   0.20267  -0.00353
  61        5S         -0.05783  -0.03464  -0.02319  -0.01144
  62        5PX         0.03933   0.01905   0.02028  -0.00122
  63        5PY         0.02307  -0.00135   0.02442  -0.02577
  64        5PZ        -0.06389  -0.03480  -0.02910  -0.00570
  65        6D 0        0.00009   0.00004   0.00005   0.00000
  66        6D+1        0.00005   0.00002   0.00002   0.00000
  67        6D-1        0.00004   0.00002   0.00002   0.00000
  68        6D+2        0.00000   0.00000   0.00000   0.00000
  69        6D-2        0.00000   0.00000   0.00000   0.00000
  70        7D 0        0.00429   0.00215   0.00214   0.00000
  71        7D+1        0.00282   0.00141   0.00141   0.00000
  72        7D-1        0.00276   0.00136   0.00140  -0.00004
  73        7D+2        0.00001   0.00000   0.00001  -0.00001
  74        7D-2        0.00000   0.00000   0.00000   0.00000
  75        8D 0        0.00285   0.00130   0.00154  -0.00024
  76        8D+1        0.01423   0.00695   0.00728  -0.00032
  77        8D-1        0.01001   0.00293   0.00708  -0.00415
  78        8D+2        0.00001   0.00000   0.00001  -0.00001
  79        8D-2        0.00000   0.00000   0.00000   0.00000
  80        9F 0        0.00042   0.00020   0.00022  -0.00003
  81        9F+1        0.00038   0.00018   0.00020  -0.00002
  82        9F-1        0.00041   0.00018   0.00023  -0.00005
  83        9F+2        0.00000   0.00000   0.00000   0.00000
  84        9F-2        0.00000   0.00000   0.00000   0.00000
  85        9F+3        0.00000   0.00000   0.00000   0.00000
  86        9F-3        0.00000   0.00000   0.00000   0.00000
          Condensed to atoms (all electrons):
               1          2
     1  P   14.613309   0.104665
     2  O    0.104665   8.177361
          Atomic-Atomic Spin Densities.
               1          2
     1  P    1.031024  -0.188509
     2  O   -0.188509   0.345995
 Mulliken charges and spin densities:
               1          2
     1  P    0.282026   0.842514
     2  O   -0.282026   0.157486
 Sum of Mulliken charges =   0.00000   1.00000
 Mulliken charges and spin densities with hydrogens summed into heavy atoms:
               1          2
     1  P    0.282026   0.842514
     2  O   -0.282026   0.157486
 Electronic spatial extent (au):  <R**2>=             81.4710
 Charge=              0.0000 electrons
 Dipole moment (field-independent basis, Debye):
    X=              0.0000    Y=              0.0000    Z=              2.0426  Tot=              2.0426
 Quadrupole moment (field-independent basis, Debye-Ang):
   XX=            -16.1524   YY=            -19.0770   ZZ=            -19.6444
   XY=              0.0000   XZ=              0.0000   YZ=              0.0000
 Traceless Quadrupole moment (field-independent basis, Debye-Ang):
   XX=              2.1389   YY=             -0.7858   ZZ=             -1.3531
   XY=              0.0000   XZ=              0.0000   YZ=              0.0000
 Octapole moment (field-independent basis, Debye-Ang**2):
  XXX=              0.0000  YYY=              0.0000  ZZZ=             -1.5634  XYY=              0.0000
  XXY=              0.0000  XXZ=             -0.3045  XZZ=              0.0000  YZZ=              0.0000
  YYZ=             -2.5379  XYZ=              0.0000
 Hexadecapole moment (field-independent basis, Debye-Ang**3):
 XXXX=            -18.8580 YYYY=            -28.4437 ZZZZ=            -76.2003 XXXY=              0.0000
 XXXZ=              0.0000 YYYX=              0.0000 YYYZ=              0.0000 ZZZX=              0.0000
 ZZZY=              0.0000 XXYY=             -7.8808 XXZZ=            -15.1422 YYZZ=            -18.7379
 XXYZ=              0.0000 YYXZ=              0.0000 ZZXY=              0.0000
 N-N= 4.297851939265D+01 E-N=-1.076552893219D+03  KE= 4.158602459863D+02
 Symmetry A1   KE= 3.468053073218D+02
 Symmetry A2   KE= 4.963636831951D-35
 Symmetry B1   KE= 3.356562936708D+01
 Symmetry B2   KE= 3.548930929742D+01
 Orbital energies and kinetic energies (alpha):
                                 1                 2
   1         O               -77.121944        106.088263
   2         O               -19.166017         29.124119
   3         O                -6.614441         15.626305
   4         O                -4.778359         14.772396
   5         O                -4.775498         14.801148
   6         O                -4.771830         14.782148
   7         O                -1.033854          2.955558
   8         O                -0.565200          2.517129
   9         O                -0.415520          2.091713
  10         O                -0.401330          2.018090
  11         O                -0.400395          2.332006
  12         O                -0.206628          1.810080
  13         V                -0.134304          1.713769
  14         V                -0.007939          0.697232
  15         V                 0.007980          0.295602
  16         V                 0.042758          0.243983
  17         V                 0.043765          0.265986
  18         V                 0.089546          0.734967
  19         V                 0.154817          0.634771
  20         V                 0.156973          0.634433
  21         V                 0.187673          0.564132
  22         V                 0.191868          0.684026
  23         V                 0.192597          0.691974
  24         V                 0.209291          0.751790
  25         V                 0.270184          1.023765
  26         V                 0.271793          1.076596
  27         V                 0.290849          0.841972
  28         V                 0.293422          0.853512
  29         V                 0.312826          0.852711
  30         V                 0.478031          2.408130
  31         V                 0.706556          2.168469
  32         V                 0.775293          1.930797
  33         V                 0.775467          1.935338
  34         V                 0.778699          1.365633
  35         V                 0.779427          1.358117
  36         V                 0.826853          2.141334
  37         V                 0.828780          2.150971
  38         V                 0.885146          2.103685
  39         V                 1.005331          2.362265
  40         V                 1.007698          2.391768
  41         V                 1.044512          2.890882
  42         V                 1.215103          2.405073
  43         V                 1.217873          2.387255
  44         V                 1.227489          3.262270
  45         V                 1.281622          2.024898
  46         V                 1.282158          2.025044
  47         V                 1.436181          2.157093
  48         V                 1.438206          2.157474
  49         V                 1.470284          4.887423
  50         V                 1.470859          4.884335
  51         V                 1.558349          4.588690
  52         V                 1.764632          3.088279
  53         V                 1.765074          3.072855
  54         V                 1.888734          4.201238
  55         V                 2.139003          4.764714
  56         V                 3.338884          5.106377
  57         V                 3.339468          5.106351
  58         V                 3.424214          5.409934
  59         V                 3.425178          5.407328
  60         V                 3.583815          5.975505
  61         V                 3.986562          8.440046
  62         V                 3.987461          8.438936
  63         V                 4.165935          8.261204
  64         V                 4.173728          8.266583
  65         V                 4.495828          9.697622
  66         V                 4.956475         11.713847
  67         V                 4.961034         11.732810
  68         V                 4.994545          6.322267
  69         V                 4.994574          6.324092
  70         V                 5.106088          6.497497
  71         V                 5.106422          6.497607
  72         V                 5.473318         12.626455
  73         V                 5.588451          7.254375
  74         V                 5.591904          7.255053
  75         V                 5.620453          8.883378
  76         V                 7.591116         24.724368
  77         V                13.774029         43.745351
  78         V                13.775068         43.716731
  79         V                13.958659         36.397186
  80         V                14.223648         20.587207
  81         V                14.224564         20.589891
  82         V                14.320912         21.143245
  83         V                14.327522         21.131135
  84         V                14.853534         28.919670
  85         V                49.928834        123.707507
  86         V               163.536510        421.857651
 Orbital energies and kinetic energies (beta):
                                 1                 2
   1         O               -77.118448        106.093737
   2         O               -19.159001         29.135220
   3         O                -6.611130         15.621547
   4         O                -4.776488         14.769229
   5         O                -4.770077         14.779607
   6         O                -4.763800         14.785246
   7         O                -1.020416          2.926386
   8         O                -0.538814          2.556692
   9         O                -0.396327          2.005914
  10         O                -0.384365          2.266592
  11         O                -0.374835          2.001122
  12         V                -0.125081          1.687616
  13         V                -0.094024          1.580575
  14         V                -0.003750          0.634264
  15         V                 0.010210          0.293501
  16         V                 0.043532          0.273459
  17         V                 0.047649          0.301712
  18         V                 0.093681          0.781140
  19         V                 0.177019          0.617291
  20         V                 0.177314          0.632875
  21         V                 0.190152          0.550945
  22         V                 0.192917          0.692443
  23         V                 0.199314          0.672110
  24         V                 0.211514          0.753283
  25         V                 0.273422          1.089592
  26         V                 0.288223          1.145723
  27         V                 0.294780          0.858892
  28         V                 0.311122          0.862705
  29         V                 0.315116          0.875220
  30         V                 0.486953          2.408688
  31         V                 0.713207          2.192985
  32         V                 0.776069          1.936354
  33         V                 0.785243          1.307214
  34         V                 0.785287          1.303560
  35         V                 0.794552          1.931648
  36         V                 0.851673          2.231905
  37         V                 0.852619          2.230065
  38         V                 0.891896          2.088798
  39         V                 1.009759          2.398133
  40         V                 1.021439          2.428143
  41         V                 1.052336          2.924299
  42         V                 1.215998          2.412658
  43         V                 1.233429          3.271440
  44         V                 1.235813          2.428741
  45         V                 1.315972          2.033330
  46         V                 1.316144          2.031808
  47         V                 1.455357          2.187540
  48         V                 1.456194          2.157573
  49         V                 1.475319          4.862459
  50         V                 1.502095          4.828270
  51         V                 1.566956          4.548199
  52         V                 1.765673          3.102673
  53         V                 1.787692          3.137822
  54         V                 1.891781          4.210548
  55         V                 2.146951          4.767212
  56         V                 3.357612          5.107991
  57         V                 3.357871          5.106760
  58         V                 3.426777          5.411610
  59         V                 3.443109          5.414101
  60         V                 3.591983          5.974575
  61         V                 3.996124          8.429464
  62         V                 3.996419          8.428139
  63         V                 4.166397          8.258465
  64         V                 4.182984          8.252748
  65         V                 4.502930          9.686966
  66         V                 4.965527         11.678571
  67         V                 4.984497         11.532951
  68         V                 5.010578          6.382122
  69         V                 5.011045          6.529661
  70         V                 5.116743          6.498214
  71         V                 5.116876          6.497422
  72         V                 5.481958         12.644669
  73         V                 5.590587          7.253588
  74         V                 5.606705          7.252945
  75         V                 5.626839          8.852962
  76         V                 7.595700         24.731580
  77         V                13.776800         43.746986
  78         V                13.791415         43.739886
  79         V                13.964070         36.496419
  80         V                14.251325         20.601697
  81         V                14.251358         20.589147
  82         V                14.330973         21.130053
  83         V                14.347849         21.126232
  84         V                14.862177         28.811382
  85         V                49.935761        123.702027
  86         V               163.539721        421.855380
 Total kinetic energy from orbitals= 4.158602459863D+02
                          Isotropic Fermi Contact Couplings
        Atom                 a.u.       MegaHertz       Gauss      10(-4) cm-1
     1  P(31)              0.00050       0.91386       0.32609       0.30483
     2  O(17)              0.02815     -17.06468      -6.08910      -5.69217
 --------------------------------------------------------
       Center         ----  Spin Dipole Couplings  ----
                      3XX-RR        3YY-RR        3ZZ-RR
 --------------------------------------------------------
     1   Atom       -1.169310      2.394078     -1.224767
     2   Atom       -0.597430      1.148399     -0.550969
 --------------------------------------------------------
                        XY            XZ            YZ
 --------------------------------------------------------
     1   Atom        0.000000      0.000000      0.000000
     2   Atom        0.000000      0.000000      0.000000
 --------------------------------------------------------


 ---------------------------------------------------------------------------------
              Anisotropic Spin Dipole Couplings in Principal Axis System
 ---------------------------------------------------------------------------------

       Atom             a.u.   MegaHertz   Gauss  10(-4) cm-1        Axes

              Baa    -1.2248  -264.775   -94.478   -88.319  0.0000  0.0000  1.0000
     1 P(31)  Bbb    -1.1693  -252.786   -90.200   -84.320  1.0000  0.0000  0.0000
              Bcc     2.3941   517.561   184.679   172.640  0.0000  1.0000  0.0000
 
              Baa    -0.5974    43.230    15.425    14.420  1.0000  0.0000  0.0000
     2 O(17)  Bbb    -0.5510    39.868    14.226    13.298  0.0000  0.0000  1.0000
              Bcc     1.1484   -83.097   -29.651   -27.718  0.0000  1.0000  0.0000
 

 ---------------------------------------------------------------------------------

 No NMR shielding tensors so no spin-rotation constants.
 Leave Link  601 at Wed Apr  8 12:51:31 2026, MaxMem=    33554432 cpu:         0.1
 (Enter /opt/g09/g09/l9999.exe)
 1\1\GINC-KADET27\FOpt\UB3LYP\6-311+G(3df)\O1P1(2)\MDOROHUN\08-Apr-2026
 \0\\#p UB3LYP/6-311+G(3df) Opt Pop=Full\\PO optymalizacja baza 6-311+G
 (3df)\\0,2\P,0.,0.,0.0112441526\O,0.,0.,1.4887558474\\Version=ES64L-G0
 9RevD.01\HF=-416.6034487\S2=0.754514\S2-1=0.\S2A=0.750011\RMSD=9.106e-
 09\RMSF=1.794e-06\Dipole=0.,0.,-0.8036291\Quadrupole=1.5902032,-0.5841
 912,-1.006012,0.,0.,0.\PG=C*V [C*(O1P1)]\\@


 ERROR IS THE FORCE THAT WELDS MEN TOGETHER....
 TRUTH IS COMMUNICATED TO MEN ONLY BY DEEDS OF TRUTH.
           TOLSTOI,MY RELIGION
 Job cpu time:       0 days  0 hours  0 minutes  4.4 seconds.
 File lengths (MBytes):  RWF=      8 Int=      0 D2E=      0 Chk=      2 Scr=      1
 Normal termination of Gaussian 09 at Wed Apr  8 12:51:31 2026.
