 Entering Gaussian System, Link 0=/opt/g09/g09/g09
 Input=INPUTS/6_311G_d.inp
 Output=INPUTS/6_311G_d.log
 Initial command:
 /opt/g09/g09/l1.exe "/tmp/Gau-9927.inp" -scrdir="/tmp/"
 Entering Link 1 = /opt/g09/g09/l1.exe PID=      9929.
  
 Copyright (c) 1988,1990,1992,1993,1995,1998,2003,2009,2013,
            Gaussian, Inc.  All Rights Reserved.
  
 This is part of the Gaussian(R) 09 program.  It is based on
 the Gaussian(R) 03 system (copyright 2003, Gaussian, Inc.),
 the Gaussian(R) 98 system (copyright 1998, Gaussian, Inc.),
 the Gaussian(R) 94 system (copyright 1995, Gaussian, Inc.),
 the Gaussian 92(TM) system (copyright 1992, Gaussian, Inc.),
 the Gaussian 90(TM) system (copyright 1990, Gaussian, Inc.),
 the Gaussian 88(TM) system (copyright 1988, Gaussian, Inc.),
 the Gaussian 86(TM) system (copyright 1986, Carnegie Mellon
 University), and the Gaussian 82(TM) system (copyright 1983,
 Carnegie Mellon University). Gaussian is a federally registered
 trademark of Gaussian, Inc.
  
 This software contains proprietary and confidential information,
 including trade secrets, belonging to Gaussian, Inc.
  
 This software is provided under written license and may be
 used, copied, transmitted, or stored only in accord with that
 written license.
  
 The following legend is applicable only to US Government
 contracts under FAR:
  
                    RESTRICTED RIGHTS LEGEND
  
 Use, reproduction and disclosure by the US Government is
 subject to restrictions as set forth in subparagraphs (a)
 and (c) of the Commercial Computer Software - Restricted
 Rights clause in FAR 52.227-19.
  
 Gaussian, Inc.
 340 Quinnipiac St., Bldg. 40, Wallingford CT 06492
  
  
 ---------------------------------------------------------------
 Warning -- This program may not be used in any manner that
 competes with the business of Gaussian, Inc. or will provide
 assistance to any competitor of Gaussian, Inc.  The licensee
 of this program is prohibited from giving any competitor of
 Gaussian, Inc. access to this program.  By using this program,
 the user acknowledges that Gaussian, Inc. is engaged in the
 business of creating and licensing software in the field of
 computational chemistry and represents and warrants to the
 licensee that it is not a competitor of Gaussian, Inc. and that
 it will not use this program in any manner prohibited above.
 ---------------------------------------------------------------
  

 Cite this work as:
 Gaussian 09, Revision D.01,
 M. J. Frisch, G. W. Trucks, H. B. Schlegel, G. E. Scuseria, 
 M. A. Robb, J. R. Cheeseman, G. Scalmani, V. Barone, B. Mennucci, 
 G. A. Petersson, H. Nakatsuji, M. Caricato, X. Li, H. P. Hratchian, 
 A. F. Izmaylov, J. Bloino, G. Zheng, J. L. Sonnenberg, M. Hada, 
 M. Ehara, K. Toyota, R. Fukuda, J. Hasegawa, M. Ishida, T. Nakajima, 
 Y. Honda, O. Kitao, H. Nakai, T. Vreven, J. A. Montgomery, Jr., 
 J. E. Peralta, F. Ogliaro, M. Bearpark, J. J. Heyd, E. Brothers, 
 K. N. Kudin, V. N. Staroverov, T. Keith, R. Kobayashi, J. Normand, 
 K. Raghavachari, A. Rendell, J. C. Burant, S. S. Iyengar, J. Tomasi, 
 M. Cossi, N. Rega, J. M. Millam, M. Klene, J. E. Knox, J. B. Cross, 
 V. Bakken, C. Adamo, J. Jaramillo, R. Gomperts, R. E. Stratmann, 
 O. Yazyev, A. J. Austin, R. Cammi, C. Pomelli, J. W. Ochterski, 
 R. L. Martin, K. Morokuma, V. G. Zakrzewski, G. A. Voth, 
 P. Salvador, J. J. Dannenberg, S. Dapprich, A. D. Daniels, 
 O. Farkas, J. B. Foresman, J. V. Ortiz, J. Cioslowski, 
 and D. J. Fox, Gaussian, Inc., Wallingford CT, 2013.
 
 ******************************************
 Gaussian 09:  ES64L-G09RevD.01 24-Apr-2013
                 8-Apr-2026 
 ******************************************
 --------------------------------
 #p UB3LYP/6-311G(d) Opt Pop=Full
 --------------------------------
 1/14=-1,18=20,19=15,26=3,38=1/1,3;
 2/9=110,12=2,17=6,18=5,40=1/2;
 3/5=4,6=6,7=1,11=2,16=1,25=1,30=1,71=1,74=-5,116=2/1,2,3;
 4//1;
 5/5=2,38=5/2;
 6/7=3,28=1/1;
 7//1,2,3,16;
 1/14=-1,18=20,19=15,26=3/3(2);
 2/9=110/2;
 99//99;
 2/9=110/2;
 3/5=4,6=6,7=1,11=2,16=1,25=1,30=1,71=1,74=-5,116=2/1,2,3;
 4/5=5,16=3,69=1/1;
 5/5=2,38=5/2;
 7//1,2,3,16;
 1/14=-1,18=20,19=15,26=3/3(-5);
 2/9=110/2;
 6/7=3,19=2,28=1/1;
 99/9=1/99;
 Leave Link    1 at Wed Apr  8 12:49:02 2026, MaxMem=           0 cpu:         0.0
 (Enter /opt/g09/g09/l101.exe)
 -------------------------------
 PO optymalizacja baza 6-311G(d)
 -------------------------------
 Symbolic Z-matrix:
 Charge =  0 Multiplicity = 2
 P                     0.        0.        0. 
 O                     0.        0.        1.5 
 
 NAtoms=      2 NQM=        2 NQMF=       0 NMMI=      0 NMMIF=      0
                NMic=       0 NMicF=      0.
                    Isotopes and Nuclear Properties:
 (Nuclear quadrupole moments (NQMom) in fm**2, nuclear magnetic moments (NMagM)
  in nuclear magnetons)

  Atom         1           2
 IAtWgt=          31          16
 AtmWgt=  30.9737634  15.9949146
 NucSpn=           1           0
 AtZEff=   0.0000000   0.0000000
 NQMom=    0.0000000   0.0000000
 NMagM=    1.1316000   0.0000000
 AtZNuc=  15.0000000   8.0000000
 Leave Link  101 at Wed Apr  8 12:49:02 2026, MaxMem=    33554432 cpu:         0.0
 (Enter /opt/g09/g09/l103.exe)

 GradGradGradGradGradGradGradGradGradGradGradGradGradGradGradGradGradGrad
 Berny optimization.
 Initialization pass.
                           ----------------------------
                           !    Initial Parameters    !
                           ! (Angstroms and Degrees)  !
 --------------------------                            --------------------------
 ! Name  Definition              Value          Derivative Info.                !
 --------------------------------------------------------------------------------
 ! R1    R(1,2)                  1.5            estimate D2E/DX2                !
 --------------------------------------------------------------------------------
 Trust Radius=3.00D-01 FncErr=1.00D-07 GrdErr=1.00D-06
 Number of steps in this run=     20 maximum allowed number of steps=    100.
 GradGradGradGradGradGradGradGradGradGradGradGradGradGradGradGradGradGrad

 Leave Link  103 at Wed Apr  8 12:49:02 2026, MaxMem=    33554432 cpu:         0.0
 (Enter /opt/g09/g09/l202.exe)
                          Input orientation:                          
 ---------------------------------------------------------------------
 Center     Atomic      Atomic             Coordinates (Angstroms)
 Number     Number       Type             X           Y           Z
 ---------------------------------------------------------------------
      1         15           0        0.000000    0.000000    0.000000
      2          8           0        0.000000    0.000000    1.500000
 ---------------------------------------------------------------------
 Stoichiometry    OP(2)
 Framework group  C*V[C*(OP)]
 Deg. of freedom     1
 Full point group                 C*V     NOp   4
 Largest Abelian subgroup         C2V     NOp   4
 Largest concise Abelian subgroup C1      NOp   1
                         Standard orientation:                         
 ---------------------------------------------------------------------
 Center     Atomic      Atomic             Coordinates (Angstroms)
 Number     Number       Type             X           Y           Z
 ---------------------------------------------------------------------
      1         15           0        0.000000    0.000000    0.521739
      2          8           0        0.000000    0.000000   -0.978261
 ---------------------------------------------------------------------
 Rotational constants (GHZ):      0.0000000     21.2944835     21.2944835
 Leave Link  202 at Wed Apr  8 12:49:02 2026, MaxMem=    33554432 cpu:         0.0
 (Enter /opt/g09/g09/l301.exe)
 Standard basis: 6-311G(d) (5D, 7F)
 Ernie: Thresh=  0.10000D-02 Tol=  0.10000D-05 Strict=F.
 There are    24 symmetry adapted cartesian basis functions of A1  symmetry.
 There are     2 symmetry adapted cartesian basis functions of A2  symmetry.
 There are    10 symmetry adapted cartesian basis functions of B1  symmetry.
 There are    10 symmetry adapted cartesian basis functions of B2  symmetry.
 There are    22 symmetry adapted basis functions of A1  symmetry.
 There are     2 symmetry adapted basis functions of A2  symmetry.
 There are    10 symmetry adapted basis functions of B1  symmetry.
 There are    10 symmetry adapted basis functions of B2  symmetry.
    44 basis functions,    78 primitive gaussians,    46 cartesian basis functions
    12 alpha electrons       11 beta electrons
       nuclear repulsion energy        42.3341766872 Hartrees.
 IExCor=  402 DFT=T Ex+Corr=B3LYP ExCW=0 ScaHFX=  0.200000
 ScaDFX=  0.800000  0.720000  1.000000  0.810000 ScalE2=  1.000000  1.000000
 IRadAn=      0 IRanWt=     -1 IRanGd=            0 ICorTp=0 IEmpDi=  4
 NAtoms=    2 NActive=    2 NUniq=    2 SFac= 1.00D+00 NAtFMM=   60 NAOKFM=F Big=F
 Integral buffers will be    131072 words long.
 Raffenetti 2 integral format.
 Two-electron integral symmetry is turned on.
 Leave Link  301 at Wed Apr  8 12:49:02 2026, MaxMem=    33554432 cpu:         0.0
 (Enter /opt/g09/g09/l302.exe)
 NPDir=0 NMtPBC=     1 NCelOv=     1 NCel=       1 NClECP=     1 NCelD=      1
         NCelK=      1 NCelE2=     1 NClLst=     1 CellRange=     0.0.
 One-electron integrals computed using PRISM.
 NBasis=    44 RedAO= T EigKep=  5.76D-02  NBF=    22     2    10    10
 NBsUse=    44 1.00D-06 EigRej= -1.00D+00 NBFU=    22     2    10    10
 Precomputing XC quadrature grid using
 IXCGrd= 4 IRadAn=           0 IRanWt=          -1 IRanGd=           0 AccXCQ= 0.00D+00.
 Generated NRdTot=       0 NPtTot=           0 NUsed=           0 NTot=          32
 NSgBfM=    46    46    46    46    46 MxSgAt=     2 MxSgA2=     2.
 Leave Link  302 at Wed Apr  8 12:49:02 2026, MaxMem=    33554432 cpu:         0.0
 (Enter /opt/g09/g09/l303.exe)
 DipDrv:  MaxL=1.
 Leave Link  303 at Wed Apr  8 12:49:02 2026, MaxMem=    33554432 cpu:         0.0
 (Enter /opt/g09/g09/l401.exe)
 ExpMin= 6.85D-02 ExpMax= 7.75D+04 ExpMxC= 2.65D+03 IAcc=2 IRadAn=         4 AccDes= 0.00D+00
 Harris functional with IExCor=  402 and IRadAn=       4 diagonalized for initial guess.
 HarFok:  IExCor=  402 AccDes= 0.00D+00 IRadAn=         4 IDoV= 1 UseB2=F ITyADJ=14
 ICtDFT=  3500011 ScaDFX=  1.000000  1.000000  1.000000  1.000000
 FoFCou: FMM=F IPFlag=           0 FMFlag=      100000 FMFlg1=           0
         NFxFlg=           0 DoJE=T BraDBF=F KetDBF=T FulRan=T
         wScrn=  0.000000 ICntrl=     500 IOpCl=  0 I1Cent=   200000004 NGrid=           0
         NMat0=    1 NMatS0=      1 NMatT0=    0 NMatD0=    1 NMtDS0=    0 NMtDT0=    0
 Petite list used in FoFCou.
 Harris En= -416.595482884137    
 JPrj=0 DoOrth=F DoCkMO=F.
 Initial guess orbital symmetries:
 Alpha Orbitals:
       Occupied  (SG) (SG) (SG) (SG) (PI) (PI) (SG) (SG) (PI) (PI)
                 (SG) (PI)
       Virtual   (PI) (SG) (PI) (PI) (SG) (SG) (PI) (PI) (DLTA)
                 (DLTA) (SG) (PI) (PI) (SG) (SG) (PI) (PI) (SG)
                 (DLTA) (DLTA) (PI) (PI) (SG) (PI) (PI) (SG) (SG)
                 (PI) (PI) (SG) (SG) (SG)
 Beta  Orbitals:
       Occupied  (SG) (SG) (SG) (SG) (PI) (PI) (SG) (SG) (PI) (PI)
                 (SG)
       Virtual   (PI) (PI) (SG) (PI) (PI) (SG) (SG) (PI) (PI) (DLTA)
                 (DLTA) (SG) (PI) (PI) (SG) (SG) (PI) (PI) (SG)
                 (DLTA) (DLTA) (PI) (PI) (SG) (PI) (PI) (SG) (SG)
                 (PI) (PI) (SG) (SG) (SG)
 Initial guess <Sx>= 0.0000 <Sy>= 0.0000 <Sz>= 0.5000 <S**2>= 0.7500 S= 0.5000
 Leave Link  401 at Wed Apr  8 12:49:02 2026, MaxMem=    33554432 cpu:         0.0
 (Enter /opt/g09/g09/l502.exe)
 UHF open shell SCF:
 Using DIIS extrapolation, IDIIS=  1040.
 Integral symmetry usage will be decided dynamically.
 Keep R1 and R2 ints in memory in symmetry-blocked form, NReq=1384435.
 IVT=       25578 IEndB=       25578 NGot=    33554432 MDV=    33254453
 LenX=    33254453 LenY=    33251896
 Requested convergence on RMS density matrix=1.00D-08 within 128 cycles.
 Requested convergence on MAX density matrix=1.00D-06.
 Requested convergence on             energy=1.00D-06.
 No special actions if energy rises.
 FoFCou: FMM=F IPFlag=           0 FMFlag=           0 FMFlg1=           0
         NFxFlg=           0 DoJE=F BraDBF=F KetDBF=F FulRan=T
         wScrn=  0.000000 ICntrl=     600 IOpCl=  0 I1Cent=           0 NGrid=           0
         NMat0=    1 NMatS0=    990 NMatT0=    0 NMatD0=    1 NMtDS0=    0 NMtDT0=    0
 Petite list used in FoFCou.
 Integral accuracy reduced to 1.0D-05 until final iterations.

 Cycle   1  Pass 0  IDiag  1:
 E= -416.378389315492    
 DIIS: error= 6.30D-02 at cycle   1 NSaved=   1.
 NSaved= 1 IEnMin= 1 EnMin= -416.378389315492     IErMin= 1 ErrMin= 6.30D-02
 ErrMax= 6.30D-02  0.00D+00 EMaxC= 1.00D-01 BMatC= 1.02D+00 BMatP= 1.02D+00
 IDIUse=3 WtCom= 3.70D-01 WtEn= 6.30D-01
 Coeff-Com:  0.100D+01
 Coeff-En:   0.100D+01
 Coeff:      0.100D+01
 Gap=    -0.043 Goal=   None    Shift=    0.000
 Gap=     0.051 Goal=   None    Shift=    0.000
 GapD=   -0.043 DampG=0.250 DampE=0.500 DampFc=0.2500 IDamp=-1.
 Damping current iteration by 2.50D-01
 RMSDP=2.36D-02 MaxDP=3.29D-01              OVMax= 7.45D-01

 Cycle   2  Pass 0  IDiag  1:
 E= -416.421163698625     Delta-E=       -0.042774383133 Rises=F Damp=T
 DIIS: error= 1.44D-02 at cycle   2 NSaved=   2.
 NSaved= 2 IEnMin= 2 EnMin= -416.421163698625     IErMin= 2 ErrMin= 1.44D-02
 ErrMax= 1.44D-02  0.00D+00 EMaxC= 1.00D-01 BMatC= 4.22D-02 BMatP= 1.02D+00
 IDIUse=3 WtCom= 8.56D-01 WtEn= 1.44D-01
 Coeff-Com: -0.438D-01 0.104D+01
 Coeff-En:   0.369D+00 0.631D+00
 Coeff:      0.155D-01 0.984D+00
 Gap=     0.071 Goal=   None    Shift=    0.000
 Gap=     0.076 Goal=   None    Shift=    0.000
 RMSDP=3.66D-03 MaxDP=3.74D-02 DE=-4.28D-02 OVMax= 6.27D-01

 Cycle   3  Pass 0  IDiag  1:
 E= -416.569477896227     Delta-E=       -0.148314197602 Rises=F Damp=F
 DIIS: error= 1.33D-02 at cycle   3 NSaved=   3.
 NSaved= 3 IEnMin= 3 EnMin= -416.569477896227     IErMin= 3 ErrMin= 1.33D-02
 ErrMax= 1.33D-02  0.00D+00 EMaxC= 1.00D-01 BMatC= 2.35D-02 BMatP= 4.22D-02
 IDIUse=3 WtCom= 8.67D-01 WtEn= 1.33D-01
 Coeff-Com: -0.115D+00 0.343D+00 0.773D+00
 Coeff-En:   0.000D+00 0.000D+00 0.100D+01
 Coeff:     -0.999D-01 0.297D+00 0.803D+00
 Gap=     0.067 Goal=   None    Shift=    0.000
 Gap=     0.232 Goal=   None    Shift=    0.000
 RMSDP=2.05D-03 MaxDP=3.10D-02 DE=-1.48D-01 OVMax= 5.75D-02

 Cycle   4  Pass 0  IDiag  1:
 E= -416.576541502059     Delta-E=       -0.007063605832 Rises=F Damp=F
 DIIS: error= 4.05D-03 at cycle   4 NSaved=   4.
 NSaved= 4 IEnMin= 4 EnMin= -416.576541502059     IErMin= 4 ErrMin= 4.05D-03
 ErrMax= 4.05D-03  0.00D+00 EMaxC= 1.00D-01 BMatC= 3.01D-03 BMatP= 2.35D-02
 IDIUse=3 WtCom= 9.60D-01 WtEn= 4.05D-02
 Coeff-Com:  0.535D-01-0.886D-01 0.330D-01 0.100D+01
 Coeff-En:   0.000D+00 0.000D+00 0.594D-01 0.941D+00
 Coeff:      0.513D-01-0.850D-01 0.340D-01 0.100D+01
 Gap=     0.072 Goal=   None    Shift=    0.000
 Gap=     0.240 Goal=   None    Shift=    0.000
 RMSDP=2.50D-04 MaxDP=4.66D-03 DE=-7.06D-03 OVMax= 5.02D-03

 Cycle   5  Pass 0  IDiag  1:
 E= -416.577028056225     Delta-E=       -0.000486554166 Rises=F Damp=F
 DIIS: error= 2.01D-03 at cycle   5 NSaved=   5.
 NSaved= 5 IEnMin= 5 EnMin= -416.577028056225     IErMin= 5 ErrMin= 2.01D-03
 ErrMax= 2.01D-03  0.00D+00 EMaxC= 1.00D-01 BMatC= 5.37D-04 BMatP= 3.01D-03
 IDIUse=3 WtCom= 9.80D-01 WtEn= 2.01D-02
 Coeff-Com:  0.106D-01-0.155D-01 0.579D-01-0.119D+00 0.107D+01
 Coeff-En:   0.000D+00 0.000D+00 0.000D+00 0.000D+00 0.100D+01
 Coeff:      0.104D-01-0.152D-01 0.567D-01-0.117D+00 0.107D+01
 Gap=     0.071 Goal=   None    Shift=    0.000
 Gap=     0.241 Goal=   None    Shift=    0.000
 RMSDP=1.66D-04 MaxDP=2.12D-03 DE=-4.87D-04 OVMax= 5.89D-03

 Cycle   6  Pass 0  IDiag  1:
 E= -416.577159772863     Delta-E=       -0.000131716638 Rises=F Damp=F
 DIIS: error= 1.82D-04 at cycle   6 NSaved=   6.
 NSaved= 6 IEnMin= 6 EnMin= -416.577159772863     IErMin= 6 ErrMin= 1.82D-04
 ErrMax= 1.82D-04  0.00D+00 EMaxC= 1.00D-01 BMatC= 3.45D-06 BMatP= 5.37D-04
 IDIUse=3 WtCom= 9.98D-01 WtEn= 1.82D-03
 Coeff-Com: -0.135D-02 0.197D-02 0.143D-01-0.636D-01 0.119D+00 0.929D+00
 Coeff-En:   0.000D+00 0.000D+00 0.000D+00 0.000D+00 0.000D+00 0.100D+01
 Coeff:     -0.135D-02 0.197D-02 0.143D-01-0.635D-01 0.119D+00 0.929D+00
 Gap=     0.071 Goal=   None    Shift=    0.000
 Gap=     0.241 Goal=   None    Shift=    0.000
 RMSDP=2.51D-05 MaxDP=3.63D-04 DE=-1.32D-04 OVMax= 1.03D-03

 Cycle   7  Pass 0  IDiag  1:
 E= -416.577160809737     Delta-E=       -0.000001036875 Rises=F Damp=F
 DIIS: error= 6.58D-05 at cycle   7 NSaved=   7.
 NSaved= 7 IEnMin= 7 EnMin= -416.577160809737     IErMin= 7 ErrMin= 6.58D-05
 ErrMax= 6.58D-05  0.00D+00 EMaxC= 1.00D-01 BMatC= 4.13D-07 BMatP= 3.45D-06
 IDIUse=1 WtCom= 1.00D+00 WtEn= 0.00D+00
 Coeff-Com: -0.578D-03 0.724D-03-0.377D-02 0.520D-02-0.340D-01 0.137D-01
 Coeff-Com:  0.102D+01
 Coeff:     -0.578D-03 0.724D-03-0.377D-02 0.520D-02-0.340D-01 0.137D-01
 Coeff:      0.102D+01
 Gap=     0.071 Goal=   None    Shift=    0.000
 Gap=     0.241 Goal=   None    Shift=    0.000
 RMSDP=6.77D-06 MaxDP=9.41D-05 DE=-1.04D-06 OVMax= 2.95D-04

 Initial convergence to 1.0D-05 achieved.  Increase integral accuracy.
 Cycle   8  Pass 1  IDiag  1:
 E= -416.577146858261     Delta-E=        0.000013951476 Rises=F Damp=F
 DIIS: error= 1.44D-04 at cycle   1 NSaved=   1.
 NSaved= 1 IEnMin= 1 EnMin= -416.577146858261     IErMin= 1 ErrMin= 1.44D-04
 ErrMax= 1.44D-04  0.00D+00 EMaxC= 1.00D-01 BMatC= 1.45D-06 BMatP= 1.45D-06
 IDIUse=3 WtCom= 9.99D-01 WtEn= 1.44D-03
 Coeff-Com:  0.100D+01
 Coeff-En:   0.100D+01
 Coeff:      0.100D+01
 Gap=     0.071 Goal=   None    Shift=    0.000
 Gap=     0.241 Goal=   None    Shift=    0.000
 RMSDP=6.77D-06 MaxDP=9.41D-05 DE= 1.40D-05 OVMax= 3.10D-04

 Cycle   9  Pass 1  IDiag  1:
 E= -416.577146874298     Delta-E=       -0.000000016036 Rises=F Damp=F
 DIIS: error= 5.77D-05 at cycle   2 NSaved=   2.
 NSaved= 2 IEnMin= 2 EnMin= -416.577146874298     IErMin= 2 ErrMin= 5.77D-05
 ErrMax= 5.77D-05  0.00D+00 EMaxC= 1.00D-01 BMatC= 3.93D-07 BMatP= 1.45D-06
 IDIUse=1 WtCom= 1.00D+00 WtEn= 0.00D+00
 Coeff-Com:  0.230D+00 0.770D+00
 Coeff:      0.230D+00 0.770D+00
 Gap=     0.071 Goal=   None    Shift=    0.000
 Gap=     0.241 Goal=   None    Shift=    0.000
 RMSDP=1.10D-05 MaxDP=1.64D-04 DE=-1.60D-08 OVMax= 4.81D-04

 Cycle  10  Pass 1  IDiag  1:
 E= -416.577146632118     Delta-E=        0.000000242179 Rises=F Damp=F
 DIIS: error= 1.03D-04 at cycle   3 NSaved=   3.
 NSaved= 3 IEnMin= 2 EnMin= -416.577146874298     IErMin= 2 ErrMin= 5.77D-05
 ErrMax= 1.03D-04  0.00D+00 EMaxC= 1.00D-01 BMatC= 1.65D-06 BMatP= 3.93D-07
 IDIUse=3 WtCom= 4.96D-01 WtEn= 5.04D-01
 Coeff-Com: -0.291D-01 0.691D+00 0.338D+00
 Coeff-En:   0.000D+00 0.724D+00 0.276D+00
 Coeff:     -0.144D-01 0.708D+00 0.307D+00
 Gap=     0.071 Goal=   None    Shift=    0.000
 Gap=     0.241 Goal=   None    Shift=    0.000
 RMSDP=6.38D-06 MaxDP=8.67D-05 DE= 2.42D-07 OVMax= 2.65D-04

 Cycle  11  Pass 1  IDiag  1:
 E= -416.577146961321     Delta-E=       -0.000000329202 Rises=F Damp=F
 DIIS: error= 1.62D-05 at cycle   4 NSaved=   4.
 NSaved= 4 IEnMin= 4 EnMin= -416.577146961321     IErMin= 4 ErrMin= 1.62D-05
 ErrMax= 1.62D-05  0.00D+00 EMaxC= 1.00D-01 BMatC= 2.21D-08 BMatP= 3.93D-07
 IDIUse=1 WtCom= 1.00D+00 WtEn= 0.00D+00
 Coeff-Com: -0.368D-03-0.693D-01-0.168D+00 0.124D+01
 Coeff:     -0.368D-03-0.693D-01-0.168D+00 0.124D+01
 Gap=     0.071 Goal=   None    Shift=    0.000
 Gap=     0.241 Goal=   None    Shift=    0.000
 RMSDP=1.73D-06 MaxDP=3.45D-05 DE=-3.29D-07 OVMax= 9.96D-05

 Cycle  12  Pass 1  IDiag  1:
 E= -416.577146970363     Delta-E=       -0.000000009043 Rises=F Damp=F
 DIIS: error= 4.67D-06 at cycle   5 NSaved=   5.
 NSaved= 5 IEnMin= 5 EnMin= -416.577146970363     IErMin= 5 ErrMin= 4.67D-06
 ErrMax= 4.67D-06  0.00D+00 EMaxC= 1.00D-01 BMatC= 1.09D-09 BMatP= 2.21D-08
 IDIUse=1 WtCom= 1.00D+00 WtEn= 0.00D+00
 Coeff-Com:  0.161D-01-0.365D+00-0.147D+00-0.158D+00 0.165D+01
 Coeff:      0.161D-01-0.365D+00-0.147D+00-0.158D+00 0.165D+01
 Gap=     0.071 Goal=   None    Shift=    0.000
 Gap=     0.241 Goal=   None    Shift=    0.000
 RMSDP=2.00D-06 MaxDP=4.09D-05 DE=-9.04D-09 OVMax= 1.13D-04

 Cycle  13  Pass 1  IDiag  1:
 E= -416.577146973241     Delta-E=       -0.000000002878 Rises=F Damp=F
 DIIS: error= 5.57D-07 at cycle   6 NSaved=   6.
 NSaved= 6 IEnMin= 6 EnMin= -416.577146973241     IErMin= 6 ErrMin= 5.57D-07
 ErrMax= 5.57D-07  0.00D+00 EMaxC= 1.00D-01 BMatC= 2.22D-11 BMatP= 1.09D-09
 IDIUse=1 WtCom= 1.00D+00 WtEn= 0.00D+00
 Coeff-Com:  0.228D-03 0.236D-02 0.107D-01-0.963D-01 0.347D-01 0.105D+01
 Coeff:      0.228D-03 0.236D-02 0.107D-01-0.963D-01 0.347D-01 0.105D+01
 Gap=     0.071 Goal=   None    Shift=    0.000
 Gap=     0.241 Goal=   None    Shift=    0.000
 RMSDP=2.25D-07 MaxDP=4.15D-06 DE=-2.88D-09 OVMax= 1.16D-05

 Cycle  14  Pass 1  IDiag  1:
 E= -416.577146973280     Delta-E=       -0.000000000039 Rises=F Damp=F
 DIIS: error= 1.58D-07 at cycle   7 NSaved=   7.
 NSaved= 7 IEnMin= 7 EnMin= -416.577146973280     IErMin= 7 ErrMin= 1.58D-07
 ErrMax= 1.58D-07  0.00D+00 EMaxC= 1.00D-01 BMatC= 2.94D-12 BMatP= 2.22D-11
 IDIUse=1 WtCom= 1.00D+00 WtEn= 0.00D+00
 Coeff-Com: -0.816D-03 0.207D-01 0.854D-02-0.270D-03-0.101D+00 0.219D+00
 Coeff-Com:  0.853D+00
 Coeff:     -0.816D-03 0.207D-01 0.854D-02-0.270D-03-0.101D+00 0.219D+00
 Coeff:      0.853D+00
 Gap=     0.071 Goal=   None    Shift=    0.000
 Gap=     0.241 Goal=   None    Shift=    0.000
 RMSDP=3.44D-08 MaxDP=5.39D-07 DE=-3.87D-11 OVMax= 1.68D-06

 Cycle  15  Pass 1  IDiag  1:
 E= -416.577146973282     Delta-E=       -0.000000000002 Rises=F Damp=F
 DIIS: error= 4.12D-08 at cycle   8 NSaved=   8.
 NSaved= 8 IEnMin= 8 EnMin= -416.577146973282     IErMin= 8 ErrMin= 4.12D-08
 ErrMax= 4.12D-08  0.00D+00 EMaxC= 1.00D-01 BMatC= 2.06D-13 BMatP= 2.94D-12
 IDIUse=1 WtCom= 1.00D+00 WtEn= 0.00D+00
 Coeff-Com: -0.172D-03 0.301D-02 0.157D-03 0.113D-01-0.182D-01-0.107D+00
 Coeff-Com:  0.439D-01 0.107D+01
 Coeff:     -0.172D-03 0.301D-02 0.157D-03 0.113D-01-0.182D-01-0.107D+00
 Coeff:      0.439D-01 0.107D+01
 Gap=     0.071 Goal=   None    Shift=    0.000
 Gap=     0.241 Goal=   None    Shift=    0.000
 RMSDP=1.30D-08 MaxDP=2.03D-07 DE=-1.76D-12 OVMax= 5.70D-07

 Cycle  16  Pass 1  IDiag  1:
 E= -416.577146973282     Delta-E=        0.000000000000 Rises=F Damp=F
 DIIS: error= 1.44D-08 at cycle   9 NSaved=   9.
 NSaved= 9 IEnMin= 9 EnMin= -416.577146973282     IErMin= 9 ErrMin= 1.44D-08
 ErrMax= 1.44D-08  0.00D+00 EMaxC= 1.00D-01 BMatC= 2.17D-14 BMatP= 2.06D-13
 IDIUse=1 WtCom= 1.00D+00 WtEn= 0.00D+00
 Coeff-Com:  0.531D-04-0.149D-02-0.745D-03 0.419D-03 0.774D-02-0.270D-01
 Coeff-Com: -0.448D-01 0.125D-01 0.105D+01
 Coeff:      0.531D-04-0.149D-02-0.745D-03 0.419D-03 0.774D-02-0.270D-01
 Coeff:     -0.448D-01 0.125D-01 0.105D+01
 Gap=     0.071 Goal=   None    Shift=    0.000
 Gap=     0.241 Goal=   None    Shift=    0.000
 RMSDP=2.81D-09 MaxDP=5.06D-08 DE=-2.27D-13 OVMax= 1.43D-07

 SCF Done:  E(UB3LYP) =  -416.577146973     A.U. after   16 cycles
            NFock= 16  Conv=0.28D-08     -V/T= 2.0015
 <Sx>= 0.0000 <Sy>= 0.0000 <Sz>= 0.5000 <S**2>= 0.7527 S= 0.5013
 <L.S>= 0.000000000000E+00
 KE= 4.159342218428D+02 PE=-1.075415052893D+03 EE= 2.005695073898D+02
 Annihilation of the first spin contaminant:
 S**2 before annihilation     0.7527,   after     0.7500
 Leave Link  502 at Wed Apr  8 12:49:02 2026, MaxMem=    33554432 cpu:         0.2
 (Enter /opt/g09/g09/l601.exe)
 Copying SCF densities to generalized density rwf, IOpCl= 1 IROHF=0.

 **********************************************************************

            Population analysis using the SCF density.

 **********************************************************************

 Orbital symmetries:
 Alpha Orbitals:
       Occupied  (SG) (SG) (SG) (PI) (PI) (SG) (SG) (SG) (PI) (SG)
                 (PI) (PI)
       Virtual   (PI) (SG) (PI) (PI) (SG) (SG) (DLTA) (DLTA) (PI)
                 (PI) (SG) (PI) (PI) (SG) (SG) (PI) (PI) (SG) (DLTA)
                 (DLTA) (PI) (PI) (SG) (PI) (PI) (SG) (SG) (PI)
                 (PI) (SG) (SG) (SG)
 Beta  Orbitals:
       Occupied  (SG) (SG) (SG) (PI) (SG) (PI) (SG) (SG) (PI) (SG)
                 (PI)
       Virtual   (PI) (PI) (SG) (PI) (PI) (SG) (?A) (PI) (?A) (?A)
                 (PI) (?A) (PI) (PI) (SG) (SG) (PI) (PI) (SG) (DLTA)
                 (DLTA) (PI) (PI) (SG) (PI) (PI) (SG) (SG) (PI)
                 (PI) (SG) (SG) (SG)
 Unable to determine electronic state:  partially filled degenerate orbitals.
 Alpha  occ. eigenvalues --  -77.11865 -19.15731  -6.61259  -4.77618  -4.77295
 Alpha  occ. eigenvalues --   -4.77075  -1.02575  -0.56265  -0.40777  -0.39315
 Alpha  occ. eigenvalues --   -0.39138  -0.20066
 Alpha virt. eigenvalues --   -0.12950   0.01415   0.15211   0.15503   0.21911
 Alpha virt. eigenvalues --    0.34669   0.61332   0.61595   0.63807   0.64489
 Alpha virt. eigenvalues --    0.74828   0.85409   0.85422   1.05097   1.20061
 Alpha virt. eigenvalues --    1.39617   1.39697   1.46684   2.77740   2.77814
 Alpha virt. eigenvalues --    2.91098   2.91118   3.37002   4.73632   4.74252
 Alpha virt. eigenvalues --    4.91907   6.68049  13.68343  13.68513  13.88604
 Alpha virt. eigenvalues --   49.69481 162.73022
  Beta  occ. eigenvalues --  -77.11517 -19.14898  -6.60936  -4.77431  -4.76905
  Beta  occ. eigenvalues --   -4.76148  -1.00960  -0.53582  -0.38474  -0.37747
  Beta  occ. eigenvalues --   -0.36005
  Beta virt. eigenvalues --   -0.11950  -0.08952   0.02153   0.15701   0.17093
  Beta virt. eigenvalues --    0.22696   0.35797   0.64895   0.65190   0.65210
  Beta virt. eigenvalues --    0.67593   0.75263   0.85662   0.87330   1.06426
  Beta virt. eigenvalues --    1.20805   1.40125   1.42827   1.47261   2.80167
  Beta virt. eigenvalues --    2.80177   2.91510   2.93545   3.38116   4.74873
  Beta virt. eigenvalues --    4.77116   4.92596   6.68675  13.68618  13.70066
  Beta virt. eigenvalues --   13.88857  49.70302 162.73345
     Alpha Molecular Orbital Coefficients:
                           1         2         3         4         5
                           O         O         O         O         O
     Eigenvalues --   -77.11865 -19.15731  -6.61259  -4.77618  -4.77295
   1 1   P  1S          0.41905   0.00000  -0.12007   0.00000   0.00000
   2        2S          0.64599   0.00001  -0.31228   0.00000   0.00000
   3        3S          0.01409  -0.00007   0.51109   0.00000   0.00000
   4        4S         -0.00425   0.00007   0.59762   0.00000   0.00000
   5        5S          0.00147   0.00020   0.05250   0.00000   0.00000
   6        6S         -0.00034   0.00195  -0.00991   0.00000   0.00000
   7        7PX         0.00000   0.00000   0.00000   0.40777   0.00000
   8        7PY         0.00000   0.00000   0.00000   0.00000   0.40862
   9        7PZ        -0.00008   0.00002  -0.00182   0.00000   0.00000
  10        8PX         0.00000   0.00000   0.00000   0.68102   0.00000
  11        8PY         0.00000   0.00000   0.00000   0.00000   0.68073
  12        8PZ         0.00004  -0.00005  -0.00361   0.00000   0.00000
  13        9PX         0.00000   0.00000   0.00000   0.05591   0.00000
  14        9PY         0.00000   0.00000   0.00000   0.00000   0.05486
  15        9PZ         0.00003  -0.00003   0.00083   0.00000   0.00000
  16       10PX         0.00000   0.00000   0.00000  -0.00342   0.00000
  17       10PY         0.00000   0.00000   0.00000   0.00000  -0.00292
  18       10PZ        -0.00037  -0.00112  -0.00592   0.00000   0.00000
  19       11PX         0.00000   0.00000   0.00000   0.00095   0.00000
  20       11PY         0.00000   0.00000   0.00000   0.00000   0.00082
  21       11PZ         0.00006  -0.00089   0.00123   0.00000   0.00000
  22       12D 0        0.00015   0.00013   0.00192   0.00000   0.00000
  23       12D+1        0.00000   0.00000   0.00000  -0.00019   0.00000
  24       12D-1        0.00000   0.00000   0.00000   0.00000  -0.00011
  25       12D+2        0.00000   0.00001   0.00012   0.00000   0.00000
  26       12D-2        0.00000   0.00000   0.00000   0.00000   0.00000
  27 2   O  1S          0.00000   0.55118  -0.00013   0.00000   0.00000
  28        2S          0.00001   0.47003  -0.00014   0.00000   0.00000
  29        2PX         0.00000   0.00000   0.00000   0.00006   0.00000
  30        2PY         0.00000   0.00000   0.00000   0.00000   0.00009
  31        2PZ         0.00003   0.00113   0.00017   0.00000   0.00000
  32        3S          0.00004   0.01238   0.00057   0.00000   0.00000
  33        3PX         0.00000   0.00000   0.00000   0.00021   0.00000
  34        3PY         0.00000   0.00000   0.00000   0.00000   0.00025
  35        3PZ        -0.00010   0.00002  -0.00025   0.00000   0.00000
  36        4S         -0.00034  -0.00614  -0.00426   0.00000   0.00000
  37        4PX         0.00000   0.00000   0.00000   0.00007   0.00000
  38        4PY         0.00000   0.00000   0.00000   0.00000   0.00004
  39        4PZ        -0.00031  -0.00138  -0.00519   0.00000   0.00000
  40        5D 0       -0.00011  -0.00011  -0.00053   0.00000   0.00000
  41        5D+1        0.00000   0.00000   0.00000   0.00014   0.00000
  42        5D-1        0.00000   0.00000   0.00000   0.00000   0.00015
  43        5D+2        0.00000  -0.00009   0.00001   0.00000   0.00000
  44        5D-2        0.00000   0.00000   0.00000   0.00000   0.00000
                           6         7         8         9        10
                           O         O         O         O         O
     Eigenvalues --    -4.77075  -1.02575  -0.56265  -0.40777  -0.39315
   1 1   P  1S         -0.00059   0.01317   0.03108   0.00000   0.00972
   2        2S         -0.00155   0.03608   0.08551   0.00000   0.02691
   3        3S          0.00249  -0.07449  -0.18031   0.00000  -0.05834
   4        4S          0.00333  -0.13733  -0.34270   0.00000  -0.10397
   5        5S         -0.00022   0.22567   0.60317   0.00000   0.14780
   6        6S          0.00023   0.04860   0.42096   0.00000   0.38049
   7        7PX         0.00000   0.00000   0.00000   0.00000   0.00000
   8        7PY         0.00000   0.00000   0.00000  -0.05784   0.00000
   9        7PZ         0.40810   0.03696  -0.00897   0.00000  -0.07759
  10        8PX         0.00000   0.00000   0.00000   0.00000   0.00000
  11        8PY         0.00000   0.00000   0.00000  -0.09965   0.00000
  12        8PZ         0.68062   0.06656  -0.01476   0.00000  -0.13491
  13        9PX         0.00000   0.00000   0.00000   0.00000   0.00000
  14        9PY         0.00000   0.00000   0.00000   0.11798   0.00000
  15        9PZ         0.05581  -0.08082   0.00987   0.00000   0.17413
  16       10PX         0.00000   0.00000   0.00000   0.00000   0.00000
  17       10PY         0.00000   0.00000   0.00000   0.28311   0.00000
  18       10PZ        -0.00326  -0.06974   0.06037   0.00000   0.32262
  19       11PX         0.00000   0.00000   0.00000   0.00000   0.00000
  20       11PY         0.00000   0.00000   0.00000   0.10451   0.00000
  21       11PZ         0.00083   0.00701   0.03436   0.00000   0.03740
  22       12D 0       -0.00082   0.05229  -0.00851   0.00000  -0.07198
  23       12D+1        0.00000   0.00000   0.00000   0.00000   0.00000
  24       12D-1        0.00000   0.00000   0.00000  -0.06425   0.00000
  25       12D+2       -0.00009   0.00024  -0.00551   0.00000  -0.00540
  26       12D-2        0.00000   0.00000   0.00000   0.00000   0.00000
  27 2   O  1S          0.00047  -0.11480   0.05256   0.00000  -0.02091
  28        2S          0.00067  -0.18452   0.08504   0.00000  -0.03371
  29        2PX         0.00000   0.00000   0.00000   0.00000   0.00000
  30        2PY         0.00000   0.00000   0.00000   0.25889   0.00000
  31        2PZ        -0.00070   0.06061   0.11901   0.00000  -0.23533
  32        3S         -0.00164   0.54313  -0.25511   0.00000   0.09859
  33        3PX         0.00000   0.00000   0.00000   0.00000   0.00000
  34        3PY         0.00000   0.00000   0.00000   0.37464   0.00000
  35        3PZ        -0.00109   0.10280   0.16950   0.00000  -0.33503
  36        4S         -0.00037   0.38457  -0.30834   0.00000   0.15115
  37        4PX         0.00000   0.00000   0.00000   0.00000   0.00000
  38        4PY         0.00000   0.00000   0.00000   0.34007   0.00000
  39        4PZ        -0.00023   0.04412   0.11780   0.00000  -0.27313
  40        5D 0       -0.00051   0.01265   0.01299   0.00000  -0.01843
  41        5D+1        0.00000   0.00000   0.00000   0.00000   0.00000
  42        5D-1        0.00000   0.00000   0.00000   0.02279   0.00000
  43        5D+2        0.00000  -0.00047   0.00078   0.00000  -0.00042
  44        5D-2        0.00000   0.00000   0.00000   0.00000   0.00000
                          11        12        13        14        15
                           O         O         V         V         V
     Eigenvalues --    -0.39138  -0.20066  -0.12950   0.01415   0.15211
   1 1   P  1S          0.00000   0.00000   0.00000  -0.00683   0.00000
   2        2S          0.00000   0.00000   0.00000  -0.01903   0.00000
   3        3S          0.00000   0.00000   0.00000   0.04233   0.00000
   4        4S          0.00000   0.00000   0.00000   0.07488   0.00000
   5        5S          0.00000   0.00000   0.00000  -0.07286   0.00000
   6        6S          0.00000   0.00000   0.00000  -0.58966   0.00000
   7        7PX        -0.05941   0.00000  -0.08935   0.00000   0.00000
   8        7PY         0.00000  -0.09425   0.00000   0.00000   0.07721
   9        7PZ         0.00000   0.00000   0.00000  -0.04045   0.00000
  10        8PX        -0.10215   0.00000  -0.15020   0.00000   0.00000
  11        8PY         0.00000  -0.15873   0.00000   0.00000   0.11990
  12        8PZ         0.00000   0.00000   0.00000  -0.06507   0.00000
  13        9PX         0.11884   0.00000   0.16996   0.00000   0.00000
  14        9PY         0.00000   0.18362   0.00000   0.00000  -0.09604
  15        9PZ         0.00000   0.00000   0.00000   0.05252   0.00000
  16       10PX         0.29358   0.00000   0.55922   0.00000   0.00000
  17       10PY         0.00000   0.59255   0.00000   0.00000  -0.88258
  18       10PZ         0.00000   0.00000   0.00000   0.38645   0.00000
  19       11PX         0.11405   0.00000   0.39684   0.00000   0.00000
  20       11PY         0.00000   0.35102   0.00000   0.00000   1.21468
  21       11PZ         0.00000   0.00000   0.00000   0.95638   0.00000
  22       12D 0        0.00000   0.00000   0.00000   0.16047   0.00000
  23       12D+1       -0.07384   0.00000   0.07376   0.00000   0.00000
  24       12D-1        0.00000   0.07657   0.00000   0.00000   0.00969
  25       12D+2        0.00000   0.00000   0.00000   0.00095   0.00000
  26       12D-2        0.00000   0.00000   0.00000   0.00000   0.00000
  27 2   O  1S          0.00000   0.00000   0.00000  -0.03503   0.00000
  28        2S          0.00000   0.00000   0.00000  -0.05634   0.00000
  29        2PX         0.24790   0.00000  -0.18084   0.00000   0.00000
  30        2PY         0.00000  -0.17922   0.00000   0.00000  -0.00073
  31        2PZ         0.00000   0.00000   0.00000   0.09080   0.00000
  32        3S          0.00000   0.00000   0.00000   0.15239   0.00000
  33        3PX         0.35889   0.00000  -0.24663   0.00000   0.00000
  34        3PY         0.00000  -0.24489   0.00000   0.00000   0.01169
  35        3PZ         0.00000   0.00000   0.00000   0.14731   0.00000
  36        4S          0.00000   0.00000   0.00000   0.73839   0.00000
  37        4PX         0.34647   0.00000  -0.35860   0.00000   0.00000
  38        4PY         0.00000  -0.33645   0.00000   0.00000  -0.04276
  39        4PZ         0.00000   0.00000   0.00000   0.22813   0.00000
  40        5D 0        0.00000   0.00000   0.00000   0.00539   0.00000
  41        5D+1        0.02432   0.00000  -0.00334   0.00000   0.00000
  42        5D-1        0.00000  -0.00284   0.00000   0.00000  -0.01028
  43        5D+2        0.00000   0.00000   0.00000  -0.00042   0.00000
  44        5D-2        0.00000   0.00000   0.00000   0.00000   0.00000
                          16        17        18        19        20
                           V         V         V         V         V
     Eigenvalues --     0.15503   0.21911   0.34669   0.61332   0.61595
   1 1   P  1S          0.00000  -0.01333   0.02960   0.00000   0.00042
   2        2S          0.00000  -0.03548   0.07911   0.00000   0.00125
   3        3S          0.00000   0.06429  -0.14648   0.00000  -0.00342
   4        4S          0.00000   0.21727  -0.47903   0.00000  -0.00274
   5        5S          0.00000  -0.85236   1.74173   0.00000   0.00842
   6        6S          0.00000   1.29680  -1.48201   0.00000   0.00112
   7        7PX         0.08072   0.00000   0.00000   0.00000   0.00000
   8        7PY         0.00000   0.00000   0.00000   0.00000   0.00000
   9        7PZ         0.00000   0.07771   0.04861   0.00000   0.00001
  10        8PX         0.12560   0.00000   0.00000   0.00000   0.00000
  11        8PY         0.00000   0.00000   0.00000   0.00000   0.00000
  12        8PZ         0.00000   0.11353   0.07696   0.00000   0.00027
  13        9PX        -0.09923   0.00000   0.00000   0.00000   0.00000
  14        9PY         0.00000   0.00000   0.00000   0.00000   0.00000
  15        9PZ         0.00000  -0.02865  -0.08029   0.00000  -0.00095
  16       10PX        -0.91080   0.00000   0.00000   0.00000   0.00000
  17       10PY         0.00000   0.00000   0.00000   0.00000   0.00000
  18       10PZ         0.00000  -1.29478  -0.47473   0.00000   0.00078
  19       11PX         1.19937   0.00000   0.00000   0.00000   0.00000
  20       11PY         0.00000   0.00000   0.00000   0.00000   0.00000
  21       11PZ         0.00000   0.83942   0.61200   0.00000   0.00027
  22       12D 0        0.00000  -0.10510  -0.22507   0.00000   0.00792
  23       12D+1        0.01488   0.00000   0.00000   0.00000   0.00000
  24       12D-1        0.00000   0.00000   0.00000   0.00000   0.00000
  25       12D+2        0.00000   0.00158  -0.00149   0.00000   0.99894
  26       12D-2        0.00000   0.00000   0.00000   0.99903   0.00000
  27 2   O  1S          0.00000   0.01208   0.00276   0.00000   0.00106
  28        2S          0.00000   0.02009   0.00590   0.00000   0.00197
  29        2PX         0.00563   0.00000   0.00000   0.00000   0.00000
  30        2PY         0.00000   0.00000   0.00000   0.00000   0.00000
  31        2PZ         0.00000  -0.06912  -0.15065   0.00000  -0.00221
  32        3S          0.00000  -0.05458  -0.05681   0.00000  -0.01073
  33        3PX         0.01872   0.00000   0.00000   0.00000   0.00000
  34        3PY         0.00000   0.00000   0.00000   0.00000   0.00000
  35        3PZ         0.00000  -0.10168  -0.25312   0.00000  -0.00513
  36        4S          0.00000  -0.47867   0.34710   0.00000   0.00478
  37        4PX        -0.02512   0.00000   0.00000   0.00000   0.00000
  38        4PY         0.00000   0.00000   0.00000   0.00000   0.00000
  39        4PZ         0.00000  -0.53974  -0.07224   0.00000  -0.00034
  40        5D 0        0.00000  -0.01204   0.02989   0.00000  -0.00020
  41        5D+1       -0.01093   0.00000   0.00000   0.00000   0.00000
  42        5D-1        0.00000   0.00000   0.00000   0.00000   0.00000
  43        5D+2        0.00000   0.00029  -0.00008   0.00000   0.02215
  44        5D-2        0.00000   0.00000   0.00000   0.02208   0.00000
                          21        22        23        24        25
                           V         V         V         V         V
     Eigenvalues --     0.63807   0.64489   0.74828   0.85409   0.85422
   1 1   P  1S          0.00000   0.00000  -0.00850   0.00000   0.00000
   2        2S          0.00000   0.00000  -0.02208   0.00000   0.00000
   3        3S          0.00000   0.00000   0.03407   0.00000   0.00000
   4        4S          0.00000   0.00000   0.18377   0.00000   0.00000
   5        5S          0.00000   0.00000  -0.83539   0.00000   0.00000
   6        6S          0.00000   0.00000  -0.34560   0.00000   0.00000
   7        7PX         0.00000   0.00875   0.00000   0.00000  -0.00085
   8        7PY         0.00993   0.00000   0.00000  -0.00037   0.00000
   9        7PZ         0.00000   0.00000  -0.03725   0.00000   0.00000
  10        8PX         0.00000   0.02038   0.00000   0.00000  -0.00280
  11        8PY         0.02189   0.00000   0.00000  -0.00270   0.00000
  12        8PZ         0.00000   0.00000  -0.08243   0.00000   0.00000
  13        9PX         0.00000  -0.07200   0.00000   0.00000   0.02634
  14        9PY        -0.07231   0.00000   0.00000   0.03069   0.00000
  15        9PZ         0.00000   0.00000   0.24619   0.00000   0.00000
  16       10PX         0.00000   0.09501   0.00000   0.00000  -0.17223
  17       10PY         0.08509   0.00000   0.00000  -0.18641   0.00000
  18       10PZ         0.00000   0.00000   0.77766   0.00000   0.00000
  19       11PX         0.00000   0.00203   0.00000   0.00000  -0.27932
  20       11PY         0.01011   0.00000   0.00000  -0.27374   0.00000
  21       11PZ         0.00000   0.00000  -0.18463   0.00000   0.00000
  22       12D 0        0.00000   0.00000  -0.46620   0.00000   0.00000
  23       12D+1        0.00000   0.84498   0.00000   0.00000   0.58295
  24       12D-1        0.84158   0.00000   0.00000   0.58907   0.00000
  25       12D+2        0.00000   0.00000   0.00345   0.00000   0.00000
  26       12D-2        0.00000   0.00000   0.00000   0.00000   0.00000
  27 2   O  1S          0.00000   0.00000  -0.04774   0.00000   0.00000
  28        2S          0.00000   0.00000  -0.08281   0.00000   0.00000
  29        2PX         0.00000   0.18842   0.00000   0.00000  -0.19487
  30        2PY         0.18695   0.00000   0.00000  -0.19215   0.00000
  31        2PZ         0.00000   0.00000  -0.11163   0.00000   0.00000
  32        3S          0.00000   0.00000   0.32874   0.00000   0.00000
  33        3PX         0.00000   0.44629   0.00000   0.00000  -0.68751
  34        3PY         0.44296   0.00000   0.00000  -0.67577   0.00000
  35        3PZ         0.00000   0.00000  -0.53223   0.00000   0.00000
  36        4S          0.00000   0.00000   0.50467   0.00000   0.00000
  37        4PX         0.00000  -0.35423   0.00000   0.00000   1.27715
  38        4PY        -0.37107   0.00000   0.00000   1.27884   0.00000
  39        4PZ         0.00000   0.00000   1.76031   0.00000   0.00000
  40        5D 0        0.00000   0.00000  -0.04960   0.00000   0.00000
  41        5D+1        0.00000  -0.04362   0.00000   0.00000  -0.06413
  42        5D-1       -0.04356   0.00000   0.00000  -0.06421   0.00000
  43        5D+2        0.00000   0.00000  -0.00017   0.00000   0.00000
  44        5D-2        0.00000   0.00000   0.00000   0.00000   0.00000
                          26        27        28        29        30
                           V         V         V         V         V
     Eigenvalues --     1.05097   1.20061   1.39617   1.39697   1.46684
   1 1   P  1S          0.00349  -0.00300   0.00000   0.00000  -0.00802
   2        2S          0.01144  -0.00710   0.00000   0.00000  -0.02253
   3        3S         -0.04164   0.00366   0.00000   0.00000   0.05225
   4        4S          0.02194   0.09955   0.00000   0.00000   0.11556
   5        5S         -0.22784  -0.28424   0.00000   0.00000  -0.39244
   6        6S          0.05182  -1.20629   0.00000   0.00000  -0.77378
   7        7PX         0.00000   0.00000  -0.19421   0.00000   0.00000
   8        7PY         0.00000   0.00000   0.00000  -0.19331   0.00000
   9        7PZ         0.08073  -0.03725   0.00000   0.00000   0.16595
  10        8PX         0.00000   0.00000  -0.44561   0.00000   0.00000
  11        8PY         0.00000   0.00000   0.00000  -0.44392   0.00000
  12        8PZ         0.15446  -0.08969   0.00000   0.00000   0.39866
  13        9PX         0.00000   0.00000   1.84697   0.00000   0.00000
  14        9PY         0.00000   0.00000   0.00000   1.84578   0.00000
  15        9PZ        -0.44321   0.29547   0.00000   0.00000  -1.83117
  16       10PX         0.00000   0.00000  -1.71887   0.00000   0.00000
  17       10PY         0.00000   0.00000   0.00000  -1.72319   0.00000
  18       10PZ         0.28155   0.76028   0.00000   0.00000   2.73027
  19       11PX         0.00000   0.00000   0.52752   0.00000   0.00000
  20       11PY         0.00000   0.00000   0.00000   0.52971   0.00000
  21       11PZ        -0.11636   0.49322   0.00000   0.00000  -0.46354
  22       12D 0        0.81943  -0.50021   0.00000   0.00000  -0.68284
  23       12D+1        0.00000   0.00000   0.04624   0.00000   0.00000
  24       12D-1        0.00000   0.00000   0.00000   0.04303   0.00000
  25       12D+2       -0.00867  -0.00211   0.00000   0.00000   0.00135
  26       12D-2        0.00000   0.00000   0.00000   0.00000   0.00000
  27 2   O  1S          0.05564   0.10344   0.00000   0.00000   0.00016
  28        2S          0.10506   0.21111   0.00000   0.00000   0.00061
  29        2PX         0.00000   0.00000   0.01478   0.00000   0.00000
  30        2PY         0.00000   0.00000   0.00000   0.01554   0.00000
  31        2PZ        -0.23975   0.06117   0.00000   0.00000  -0.01966
  32        3S         -0.61336  -1.69809   0.00000   0.00000  -0.11658
  33        3PX         0.00000   0.00000   0.04635   0.00000   0.00000
  34        3PY         0.00000   0.00000   0.00000   0.04796   0.00000
  35        3PZ        -0.62075   0.03634   0.00000   0.00000   0.17902
  36        4S          0.34197   2.97560   0.00000   0.00000   1.43626
  37        4PX         0.00000   0.00000   0.06080   0.00000   0.00000
  38        4PY         0.00000   0.00000   0.00000   0.05728   0.00000
  39        4PZ         0.60746   0.98124   0.00000   0.00000   0.90661
  40        5D 0        0.02118  -0.09397   0.00000   0.00000   0.09070
  41        5D+1        0.00000   0.00000  -0.00271   0.00000   0.00000
  42        5D-1        0.00000   0.00000   0.00000  -0.00271   0.00000
  43        5D+2        0.00061   0.00162   0.00000   0.00000  -0.00018
  44        5D-2        0.00000   0.00000   0.00000   0.00000   0.00000
                          31        32        33        34        35
                           V         V         V         V         V
     Eigenvalues --     2.77740   2.77814   2.91098   2.91118   3.37002
   1 1   P  1S          0.00000  -0.00007   0.00000   0.00000  -0.01659
   2        2S          0.00000  -0.00022   0.00000   0.00000  -0.05389
   3        3S          0.00000   0.00081   0.00000   0.00000   0.20043
   4        4S          0.00000  -0.00009   0.00000   0.00000   0.01671
   5        5S          0.00000  -0.00107   0.00000   0.00000  -0.59043
   6        6S          0.00000  -0.00031   0.00000   0.00000  -0.47386
   7        7PX         0.00000   0.00000   0.00000   0.00539   0.00000
   8        7PY         0.00000   0.00000   0.00530   0.00000   0.00000
   9        7PZ         0.00000  -0.00017   0.00000   0.00000  -0.06629
  10        8PX         0.00000   0.00000   0.00000  -0.00599   0.00000
  11        8PY         0.00000   0.00000  -0.00623   0.00000   0.00000
  12        8PZ         0.00000  -0.00018   0.00000   0.00000  -0.08123
  13        9PX         0.00000   0.00000   0.00000   0.08087   0.00000
  14        9PY         0.00000   0.00000   0.08137   0.00000   0.00000
  15        9PZ         0.00000   0.00035   0.00000   0.00000   0.29868
  16       10PX         0.00000   0.00000   0.00000  -0.24252   0.00000
  17       10PY         0.00000   0.00000  -0.24250   0.00000   0.00000
  18       10PZ         0.00000   0.00143   0.00000   0.00000   0.71366
  19       11PX         0.00000   0.00000   0.00000   0.04162   0.00000
  20       11PY         0.00000   0.00000   0.04172   0.00000   0.00000
  21       11PZ         0.00000  -0.00061   0.00000   0.00000   0.01076
  22       12D 0        0.00000  -0.00127   0.00000   0.00000  -0.50742
  23       12D+1        0.00000   0.00000   0.00000   0.28089   0.00000
  24       12D-1        0.00000   0.00000   0.28069   0.00000   0.00000
  25       12D+2        0.00000  -0.05519   0.00000   0.00000   0.00043
  26       12D-2       -0.05514   0.00000   0.00000   0.00000   0.00000
  27 2   O  1S          0.00000  -0.00026   0.00000   0.00000   0.01331
  28        2S          0.00000  -0.00057   0.00000   0.00000   0.02926
  29        2PX         0.00000   0.00000   0.00000  -0.04863   0.00000
  30        2PY         0.00000   0.00000  -0.04785   0.00000   0.00000
  31        2PZ         0.00000  -0.00024   0.00000   0.00000   0.10677
  32        3S          0.00000   0.00302   0.00000   0.00000  -0.40685
  33        3PX         0.00000   0.00000   0.00000  -0.01213   0.00000
  34        3PY         0.00000   0.00000  -0.01185   0.00000   0.00000
  35        3PZ         0.00000   0.00048   0.00000   0.00000  -0.11168
  36        4S          0.00000  -0.00085   0.00000   0.00000   1.25859
  37        4PX         0.00000   0.00000   0.00000   0.15570   0.00000
  38        4PY         0.00000   0.00000   0.15611   0.00000   0.00000
  39        4PZ         0.00000   0.00055   0.00000   0.00000   0.92699
  40        5D 0        0.00000   0.00276   0.00000   0.00000   1.09851
  41        5D+1        0.00000   0.00000   0.00000   1.02125   0.00000
  42        5D-1        0.00000   0.00000   1.02131   0.00000   0.00000
  43        5D+2        0.00000   1.00030   0.00000   0.00000  -0.00234
  44        5D-2        1.00030   0.00000   0.00000   0.00000   0.00000
                          36        37        38        39        40
                           V         V         V         V         V
     Eigenvalues --     4.73632   4.74252   4.91907   6.68049  13.68343
   1 1   P  1S          0.00000   0.00000  -0.01571   0.11473   0.00000
   2        2S          0.00000   0.00000  -0.05616   0.44189   0.00000
   3        3S          0.00000   0.00000   0.26438  -2.45956   0.00000
   4        4S          0.00000   0.00000  -0.19523   2.85809   0.00000
   5        5S          0.00000   0.00000   0.06248  -1.57275   0.00000
   6        6S          0.00000   0.00000  -0.05072   0.30350   0.00000
   7        7PX         0.00000   0.00273   0.00000   0.00000  -1.21304
   8        7PY         0.00270   0.00000   0.00000   0.00000   0.00000
   9        7PZ         0.00000   0.00000  -0.06076  -0.02197   0.00000
  10        8PX         0.00000  -0.00172   0.00000   0.00000   1.46268
  11        8PY        -0.00176   0.00000   0.00000   0.00000   0.00000
  12        8PZ         0.00000   0.00000  -0.03388   0.00397   0.00000
  13        9PX         0.00000   0.01519   0.00000   0.00000  -1.03982
  14        9PY         0.01540   0.00000   0.00000   0.00000   0.00000
  15        9PZ         0.00000   0.00000   0.16371  -0.03975   0.00000
  16       10PX         0.00000   0.01140   0.00000   0.00000   0.55152
  17       10PY         0.01134   0.00000   0.00000   0.00000   0.00000
  18       10PZ         0.00000   0.00000   0.04908   0.51186   0.00000
  19       11PX         0.00000   0.10581   0.00000   0.00000  -0.14245
  20       11PY         0.10604   0.00000   0.00000   0.00000   0.00000
  21       11PZ         0.00000   0.00000   0.04824  -0.06729   0.00000
  22       12D 0        0.00000   0.00000  -0.29725  -0.25019   0.00000
  23       12D+1        0.00000  -0.00320   0.00000   0.00000  -0.00596
  24       12D-1       -0.00325   0.00000   0.00000   0.00000   0.00000
  25       12D+2        0.00000   0.00000   0.00022  -0.00043   0.00000
  26       12D-2        0.00000   0.00000   0.00000   0.00000   0.00000
  27 2   O  1S          0.00000   0.00000  -0.00283  -0.00380   0.00000
  28        2S          0.00000   0.00000  -0.00595  -0.00299   0.00000
  29        2PX         0.00000  -1.26440   0.00000   0.00000  -0.00336
  30        2PY        -1.26309   0.00000   0.00000   0.00000   0.00000
  31        2PZ         0.00000   0.00000  -1.26445  -0.15944   0.00000
  32        3S          0.00000   0.00000   0.00777  -0.07056   0.00000
  33        3PX         0.00000   1.42285   0.00000   0.00000  -0.00082
  34        3PY         1.42577   0.00000   0.00000   0.00000   0.00000
  35        3PZ         0.00000   0.00000   1.50319   0.26521   0.00000
  36        4S          0.00000   0.00000   0.15844   0.49338   0.00000
  37        4PX         0.00000  -0.61472   0.00000   0.00000  -0.02149
  38        4PY        -0.61663   0.00000   0.00000   0.00000   0.00000
  39        4PZ         0.00000   0.00000  -0.51134   0.36465   0.00000
  40        5D 0        0.00000   0.00000   0.11812   0.21784   0.00000
  41        5D+1        0.00000  -0.03495   0.00000   0.00000   0.00301
  42        5D-1       -0.03454   0.00000   0.00000   0.00000   0.00000
  43        5D+2        0.00000   0.00000  -0.00035   0.00003   0.00000
  44        5D-2        0.00000   0.00000   0.00000   0.00000   0.00000
                          41        42        43        44
                           V         V         V         V
     Eigenvalues --    13.68513  13.88604  49.69481 162.73022
   1 1   P  1S          0.00000  -0.00118  -0.00047  -1.54918
   2        2S          0.00000  -0.00415  -0.00030   1.89403
   3        3S          0.00000   0.03087   0.00403  -1.33228
   4        4S          0.00000  -0.05244  -0.00349   0.85955
   5        5S          0.00000   0.04985  -0.01246  -0.33214
   6        6S          0.00000  -0.07244  -0.08766   0.07490
   7        7PX         0.00000   0.00000   0.00000   0.00000
   8        7PY        -1.21282   0.00000   0.00000   0.00000
   9        7PZ         0.00000  -1.21400  -0.00239   0.00097
  10        8PX         0.00000   0.00000   0.00000   0.00000
  11        8PY         1.46305   0.00000   0.00000   0.00000
  12        8PZ         0.00000   1.48743   0.00419  -0.00199
  13        9PX         0.00000   0.00000   0.00000   0.00000
  14        9PY        -1.03988   0.00000   0.00000   0.00000
  15        9PZ         0.00000  -1.10617   0.00156  -0.01014
  16       10PX         0.00000   0.00000   0.00000   0.00000
  17       10PY         0.55162   0.00000   0.00000   0.00000
  18       10PZ         0.00000   0.61249   0.05387   0.08824
  19       11PX         0.00000   0.00000   0.00000   0.00000
  20       11PY        -0.14246   0.00000   0.00000   0.00000
  21       11PZ         0.00000  -0.14423   0.03741  -0.01414
  22       12D 0        0.00000   0.02781  -0.00667  -0.03580
  23       12D+1        0.00000   0.00000   0.00000   0.00000
  24       12D-1       -0.00583   0.00000   0.00000   0.00000
  25       12D+2        0.00000  -0.00007   0.00000   0.00000
  26       12D-2        0.00000   0.00000   0.00000   0.00000
  27 2   O  1S          0.00000   0.00461  -2.24602   0.00090
  28        2S          0.00000   0.00181   2.33079  -0.00223
  29        2PX         0.00000   0.00000   0.00000   0.00000
  30        2PY        -0.00335   0.00000   0.00000   0.00000
  31        2PZ         0.00000   0.08189   0.00454  -0.00855
  32        3S          0.00000   0.02389  -0.25591  -0.01024
  33        3PX         0.00000   0.00000   0.00000   0.00000
  34        3PY        -0.00085   0.00000   0.00000   0.00000
  35        3PZ         0.00000  -0.14816  -0.01674   0.02337
  36        4S          0.00000   0.04447   0.25657   0.07853
  37        4PX         0.00000   0.00000   0.00000   0.00000
  38        4PY        -0.02144   0.00000   0.00000   0.00000
  39        4PZ         0.00000   0.09373   0.07282   0.07222
  40        5D 0        0.00000  -0.11155   0.00916   0.02670
  41        5D+1        0.00000   0.00000   0.00000   0.00000
  42        5D-1        0.00302   0.00000   0.00000   0.00000
  43        5D+2        0.00000   0.00001   0.00001   0.00000
  44        5D-2        0.00000   0.00000   0.00000   0.00000
     Beta Molecular Orbital Coefficients:
                           1         2         3         4         5
                           O         O         O         O         O
     Eigenvalues --   -77.11517 -19.14898  -6.60936  -4.77431  -4.76905
   1 1   P  1S          0.41907   0.00000  -0.12005   0.00000  -0.00060
   2        2S          0.64599   0.00001  -0.31220   0.00000  -0.00157
   3        3S          0.01405  -0.00008   0.51061   0.00000   0.00254
   4        4S         -0.00422   0.00009   0.59838   0.00000   0.00344
   5        5S          0.00147   0.00015   0.05189   0.00000  -0.00051
   6        6S         -0.00034   0.00185  -0.00977   0.00000   0.00035
   7        7PX         0.00000   0.00000   0.00000   0.40765   0.00000
   8        7PY         0.00000   0.00000   0.00000   0.00000   0.00000
   9        7PZ        -0.00008   0.00002  -0.00179   0.00000   0.40800
  10        8PX         0.00000   0.00000   0.00000   0.68114   0.00000
  11        8PY         0.00000   0.00000   0.00000   0.00000   0.00000
  12        8PZ         0.00004  -0.00006  -0.00354   0.00000   0.68073
  13        9PX         0.00000   0.00000   0.00000   0.05592   0.00000
  14        9PY         0.00000   0.00000   0.00000   0.00000   0.00000
  15        9PZ         0.00003  -0.00001   0.00075   0.00000   0.05584
  16       10PX         0.00000   0.00000   0.00000  -0.00357   0.00000
  17       10PY         0.00000   0.00000   0.00000   0.00000   0.00000
  18       10PZ        -0.00037  -0.00103  -0.00605   0.00000  -0.00352
  19       11PX         0.00000   0.00000   0.00000   0.00098   0.00000
  20       11PY         0.00000   0.00000   0.00000   0.00000   0.00000
  21       11PZ         0.00006  -0.00085   0.00123   0.00000   0.00085
  22       12D 0        0.00015   0.00009   0.00224   0.00000  -0.00070
  23       12D+1        0.00000   0.00000   0.00000  -0.00021   0.00000
  24       12D-1        0.00000   0.00000   0.00000   0.00000   0.00000
  25       12D+2        0.00000   0.00000   0.00056   0.00000   0.00008
  26       12D-2        0.00000   0.00000   0.00000   0.00000   0.00000
  27 2   O  1S          0.00000   0.55140  -0.00013   0.00000   0.00047
  28        2S          0.00001   0.46996  -0.00013   0.00000   0.00067
  29        2PX         0.00000   0.00000   0.00000   0.00006   0.00000
  30        2PY         0.00000   0.00000   0.00000   0.00000   0.00000
  31        2PZ         0.00003   0.00112   0.00018   0.00000  -0.00068
  32        3S          0.00004   0.01189   0.00055   0.00000  -0.00162
  33        3PX         0.00000   0.00000   0.00000   0.00021   0.00000
  34        3PY         0.00000   0.00000   0.00000   0.00000   0.00000
  35        3PZ        -0.00010   0.00002  -0.00032   0.00000  -0.00115
  36        4S         -0.00034  -0.00582  -0.00435   0.00000  -0.00055
  37        4PX         0.00000   0.00000   0.00000   0.00009   0.00000
  38        4PY         0.00000   0.00000   0.00000   0.00000   0.00000
  39        4PZ        -0.00031  -0.00127  -0.00521   0.00000  -0.00030
  40        5D 0       -0.00011   0.00001  -0.00056   0.00000  -0.00054
  41        5D+1        0.00000   0.00000   0.00000   0.00015   0.00000
  42        5D-1        0.00000   0.00000   0.00000   0.00000   0.00000
  43        5D+2        0.00000   0.00008  -0.00001   0.00000  -0.00001
  44        5D-2        0.00000   0.00000   0.00000   0.00000   0.00000
                           6         7         8         9        10
                           O         O         O         O         O
     Eigenvalues --    -4.76148  -1.00960  -0.53582  -0.38474  -0.37747
   1 1   P  1S          0.00000   0.01330   0.03021   0.00000   0.01163
   2        2S          0.00000   0.03645   0.08327   0.00000   0.03229
   3        3S          0.00000  -0.07552  -0.17690   0.00000  -0.07071
   4        4S          0.00000  -0.13791  -0.32967   0.00000  -0.12211
   5        5S          0.00000   0.22640   0.58288   0.00000   0.18012
   6        6S          0.00000   0.04966   0.39551   0.00000   0.41015
   7        7PX         0.00000   0.00000   0.00000  -0.05892   0.00000
   8        7PY         0.40794   0.00000   0.00000   0.00000   0.00000
   9        7PZ         0.00000   0.03797  -0.00524   0.00000  -0.07827
  10        8PX         0.00000   0.00000   0.00000  -0.10130   0.00000
  11        8PY         0.68152   0.00000   0.00000   0.00000   0.00000
  12        8PZ         0.00000   0.06837  -0.00790   0.00000  -0.13585
  13        9PX         0.00000   0.00000   0.00000   0.11867   0.00000
  14        9PY         0.05465   0.00000   0.00000   0.00000   0.00000
  15        9PZ         0.00000  -0.08303   0.00122   0.00000   0.17590
  16       10PX         0.00000   0.00000   0.00000   0.28723   0.00000
  17       10PY        -0.00335   0.00000   0.00000   0.00000   0.00000
  18       10PZ         0.00000  -0.07410   0.04666   0.00000   0.32442
  19       11PX         0.00000   0.00000   0.00000   0.11603   0.00000
  20       11PY         0.00092   0.00000   0.00000   0.00000   0.00000
  21       11PZ         0.00000   0.00662   0.04106   0.00000   0.04632
  22       12D 0        0.00000   0.05639   0.00842   0.00000  -0.06226
  23       12D+1        0.00000   0.00000   0.00000  -0.07585   0.00000
  24       12D-1       -0.00039   0.00000   0.00000   0.00000   0.00000
  25       12D+2        0.00000   0.00402   0.01708   0.00000   0.01214
  26       12D-2        0.00000   0.00000   0.00000   0.00000   0.00000
  27 2   O  1S          0.00000  -0.11347   0.05416   0.00000  -0.01852
  28        2S          0.00000  -0.18205   0.08763   0.00000  -0.02968
  29        2PX         0.00000   0.00000   0.00000   0.24713   0.00000
  30        2PY         0.00006   0.00000   0.00000   0.00000   0.00000
  31        2PZ         0.00000   0.06252   0.13381   0.00000  -0.22512
  32        3S          0.00000   0.53190  -0.26318   0.00000   0.08480
  33        3PX         0.00000   0.00000   0.00000   0.35653   0.00000
  34        3PY         0.00022   0.00000   0.00000   0.00000   0.00000
  35        3PZ         0.00000   0.10556   0.18778   0.00000  -0.32153
  36        4S          0.00000   0.38665  -0.31462   0.00000   0.13821
  37        4PX         0.00000   0.00000   0.00000   0.35230   0.00000
  38        4PY         0.00008   0.00000   0.00000   0.00000   0.00000
  39        4PZ         0.00000   0.04659   0.13968   0.00000  -0.26826
  40        5D 0        0.00000   0.01536   0.01190   0.00000  -0.01743
  41        5D+1        0.00000   0.00000   0.00000   0.02460   0.00000
  42        5D-1        0.00015   0.00000   0.00000   0.00000   0.00000
  43        5D+2        0.00000   0.00382  -0.00201   0.00000   0.00104
  44        5D-2        0.00000   0.00000   0.00000   0.00000   0.00000
                          11        12        13        14        15
                           O         V         V         V         V
     Eigenvalues --    -0.36005  -0.11950  -0.08952   0.02153   0.15701
   1 1   P  1S          0.00000   0.00000   0.00000  -0.00725   0.00000
   2        2S          0.00000   0.00000   0.00000  -0.02027   0.00000
   3        3S          0.00000   0.00000   0.00000   0.04574   0.00000
   4        4S          0.00000   0.00000   0.00000   0.07696   0.00000
   5        5S          0.00000   0.00000   0.00000  -0.07407   0.00000
   6        6S          0.00000   0.00000   0.00000  -0.59240   0.00000
   7        7PX         0.00000  -0.08886   0.00000   0.00000   0.08193
   8        7PY        -0.05678   0.00000  -0.08659   0.00000   0.00000
   9        7PZ         0.00000   0.00000   0.00000  -0.03721   0.00000
  10        8PX         0.00000  -0.14943   0.00000   0.00000   0.12721
  11        8PY        -0.09741   0.00000  -0.14539   0.00000   0.00000
  12        8PZ         0.00000   0.00000   0.00000  -0.06016   0.00000
  13        9PX         0.00000   0.17144   0.00000   0.00000  -0.09990
  14        9PY         0.11555   0.00000   0.17037   0.00000   0.00000
  15        9PZ         0.00000   0.00000   0.00000   0.05079   0.00000
  16       10PX         0.00000   0.54715   0.00000   0.00000  -0.92027
  17       10PY         0.26773   0.00000   0.51360   0.00000   0.00000
  18       10PZ         0.00000   0.00000   0.00000   0.34204   0.00000
  19       11PX         0.00000   0.41309   0.00000   0.00000   1.19435
  20       11PY         0.12194   0.00000   0.46344   0.00000   0.00000
  21       11PZ         0.00000   0.00000   0.00000   0.98558   0.00000
  22       12D 0        0.00000   0.00000   0.00000   0.15285   0.00000
  23       12D+1        0.00000   0.07281   0.00000   0.00000   0.01578
  24       12D-1       -0.07820   0.00000   0.06755   0.00000   0.00000
  25       12D+2        0.00000   0.00000   0.00000  -0.01350   0.00000
  26       12D-2        0.00000   0.00000   0.00000   0.00000   0.00000
  27 2   O  1S          0.00000   0.00000   0.00000  -0.03569   0.00000
  28        2S          0.00000   0.00000   0.00000  -0.05739   0.00000
  29        2PX         0.00000  -0.17935   0.00000   0.00000   0.00720
  30        2PY         0.24828   0.00000  -0.17503   0.00000   0.00000
  31        2PZ         0.00000   0.00000   0.00000   0.08743   0.00000
  32        3S          0.00000   0.00000   0.00000   0.15574   0.00000
  33        3PX         0.00000  -0.24394   0.00000   0.00000   0.02063
  34        3PY         0.35545   0.00000  -0.23540   0.00000   0.00000
  35        3PZ         0.00000   0.00000   0.00000   0.14278   0.00000
  36        4S          0.00000   0.00000   0.00000   0.73596   0.00000
  37        4PX         0.00000  -0.35974   0.00000   0.00000  -0.02140
  38        4PY         0.36398   0.00000  -0.36046   0.00000   0.00000
  39        4PZ         0.00000   0.00000   0.00000   0.21266   0.00000
  40        5D 0        0.00000   0.00000   0.00000   0.00616   0.00000
  41        5D+1        0.00000  -0.00314   0.00000   0.00000  -0.01111
  42        5D-1        0.02499   0.00000  -0.00271   0.00000   0.00000
  43        5D+2        0.00000   0.00000   0.00000   0.00089   0.00000
  44        5D-2        0.00000   0.00000   0.00000   0.00000   0.00000
                          16        17        18        19        20
                           V         V         V         V         V
     Eigenvalues --     0.17093   0.22696   0.35797   0.64895   0.65190
   1 1   P  1S          0.00000   0.01248   0.03027   0.00000   0.00000
   2        2S          0.00000   0.03319   0.08098   0.00000   0.00000
   3        3S          0.00000  -0.05979  -0.15085   0.00000   0.00000
   4        4S          0.00000  -0.20501  -0.48660   0.00000   0.00000
   5        5S          0.00000   0.81416   1.76644   0.00000   0.00000
   6        6S          0.00000  -1.27839  -1.48781   0.00000   0.00000
   7        7PX         0.00000   0.00000   0.00000   0.00831   0.00000
   8        7PY         0.08537   0.00000   0.00000   0.00000   0.00000
   9        7PZ         0.00000  -0.07933   0.04779   0.00000   0.00000
  10        8PX         0.00000   0.00000   0.00000   0.01966   0.00000
  11        8PY         0.13143   0.00000   0.00000   0.00000   0.00000
  12        8PZ         0.00000  -0.11562   0.07612   0.00000   0.00000
  13        9PX         0.00000   0.00000   0.00000  -0.07048   0.00000
  14        9PY        -0.09944   0.00000   0.00000   0.00000   0.00000
  15        9PZ         0.00000   0.02944  -0.08269   0.00000   0.00000
  16       10PX         0.00000   0.00000   0.00000   0.09602   0.00000
  17       10PY        -0.95223   0.00000   0.00000   0.00000   0.00000
  18       10PZ         0.00000   1.31029  -0.45880   0.00000   0.00000
  19       11PX         0.00000   0.00000   0.00000   0.00027   0.00000
  20       11PY         1.17786   0.00000   0.00000   0.00000   0.00000
  21       11PZ         0.00000  -0.83003   0.57915   0.00000   0.00000
  22       12D 0        0.00000   0.11642  -0.21732   0.00000   0.00000
  23       12D+1        0.00000   0.00000   0.00000   0.84647   0.00000
  24       12D-1        0.01696   0.00000   0.00000   0.00000   0.00000
  25       12D+2        0.00000  -0.00233   0.03236   0.00000   0.00000
  26       12D-2        0.00000   0.00000   0.00000   0.00000   0.99897
  27 2   O  1S          0.00000  -0.01350   0.00334   0.00000   0.00000
  28        2S          0.00000  -0.02254   0.00676   0.00000   0.00000
  29        2PX         0.00000   0.00000   0.00000   0.18854   0.00000
  30        2PY         0.01194   0.00000   0.00000   0.00000   0.00000
  31        2PZ         0.00000   0.07379  -0.15145   0.00000   0.00000
  32        3S          0.00000   0.06544  -0.05749   0.00000   0.00000
  33        3PX         0.00000   0.00000   0.00000   0.44589   0.00000
  34        3PY         0.02690   0.00000   0.00000   0.00000   0.00000
  35        3PZ         0.00000   0.10912  -0.25443   0.00000   0.00000
  36        4S          0.00000   0.48120   0.33297   0.00000   0.00000
  37        4PX         0.00000   0.00000   0.00000  -0.34891   0.00000
  38        4PY        -0.01075   0.00000   0.00000   0.00000   0.00000
  39        4PZ         0.00000   0.54378  -0.07480   0.00000   0.00000
  40        5D 0        0.00000   0.01185   0.03003   0.00000   0.00000
  41        5D+1        0.00000   0.00000   0.00000  -0.04379   0.00000
  42        5D-1       -0.01148   0.00000   0.00000   0.00000   0.00000
  43        5D+2        0.00000   0.00042   0.00007   0.00000   0.00000
  44        5D-2        0.00000   0.00000   0.00000   0.00000   0.02305
                          21        22        23        24        25
                           V         V         V         V         V
     Eigenvalues --     0.65210   0.67593   0.75263   0.85662   0.87330
   1 1   P  1S         -0.00225   0.00000  -0.00816   0.00000   0.00000
   2        2S         -0.00628   0.00000  -0.02107   0.00000   0.00000
   3        3S          0.01424   0.00000   0.03129   0.00000   0.00000
   4        4S          0.02802   0.00000   0.18150   0.00000   0.00000
   5        5S         -0.09586   0.00000  -0.82808   0.00000   0.00000
   6        6S          0.00183   0.00000  -0.35907   0.00000   0.00000
   7        7PX         0.00000   0.00000   0.00000  -0.00075   0.00000
   8        7PY         0.00000   0.00787   0.00000   0.00000  -0.00047
   9        7PZ        -0.00435   0.00000  -0.03668   0.00000   0.00000
  10        8PX         0.00000   0.00000   0.00000  -0.00241   0.00000
  11        8PY         0.00000   0.01938   0.00000   0.00000  -0.00134
  12        8PZ        -0.00805   0.00000  -0.08155   0.00000   0.00000
  13        9PX         0.00000   0.00000   0.00000   0.02449   0.00000
  14        9PY         0.00000  -0.07256   0.00000   0.00000   0.01923
  15        9PZ         0.01596   0.00000   0.24488   0.00000   0.00000
  16       10PX         0.00000   0.00000   0.00000  -0.16969   0.00000
  17       10PY         0.00000   0.10643   0.00000   0.00000  -0.16151
  18       10PZ         0.05541   0.00000   0.78255   0.00000   0.00000
  19       11PX         0.00000   0.00000   0.00000  -0.28037   0.00000
  20       11PY         0.00000   0.00161   0.00000   0.00000  -0.28114
  21       11PZ        -0.01268   0.00000  -0.17877   0.00000   0.00000
  22       12D 0       -0.03564   0.00000  -0.46066   0.00000   0.00000
  23       12D+1        0.00000   0.00000   0.00000   0.58056   0.00000
  24       12D-1        0.00000   0.83772   0.00000   0.00000   0.59267
  25       12D+2        0.99701   0.00000  -0.03769   0.00000   0.00000
  26       12D-2        0.00000   0.00000   0.00000   0.00000   0.00000
  27 2   O  1S         -0.00378   0.00000  -0.04673   0.00000   0.00000
  28        2S         -0.00664   0.00000  -0.08061   0.00000   0.00000
  29        2PX         0.00000   0.00000   0.00000  -0.19573   0.00000
  30        2PY         0.00000   0.19188   0.00000   0.00000  -0.19383
  31        2PZ         0.00850   0.00000  -0.11518   0.00000   0.00000
  32        3S          0.02754   0.00000   0.31076   0.00000   0.00000
  33        3PX         0.00000   0.00000   0.00000  -0.69109   0.00000
  34        3PY         0.00000   0.45659   0.00000   0.00000  -0.68859
  35        3PZ         0.00859   0.00000  -0.54265   0.00000   0.00000
  36        4S          0.03039   0.00000   0.53275   0.00000   0.00000
  37        4PX         0.00000   0.00000   0.00000   1.27700   0.00000
  38        4PY         0.00000  -0.36617   0.00000   0.00000   1.26917
  39        4PZ         0.06537   0.00000   1.77225   0.00000   0.00000
  40        5D 0       -0.00259   0.00000  -0.04816   0.00000   0.00000
  41        5D+1        0.00000   0.00000   0.00000  -0.06407   0.00000
  42        5D-1        0.00000  -0.04359   0.00000   0.00000  -0.06538
  43        5D+2        0.02319   0.00000   0.00168   0.00000   0.00000
  44        5D-2        0.00000   0.00000   0.00000   0.00000   0.00000
                          26        27        28        29        30
                           V         V         V         V         V
     Eigenvalues --     1.06426   1.20805   1.40125   1.42827   1.47261
   1 1   P  1S          0.00296  -0.00273   0.00000   0.00000  -0.00788
   2        2S          0.00983  -0.00633   0.00000   0.00000  -0.02211
   3        3S         -0.03687   0.00193   0.00000   0.00000   0.05080
   4        4S          0.02441   0.09564   0.00000   0.00000   0.11560
   5        5S         -0.23487  -0.26816   0.00000   0.00000  -0.39054
   6        6S          0.05947  -1.20718   0.00000   0.00000  -0.78075
   7        7PX         0.00000   0.00000  -0.19432   0.00000   0.00000
   8        7PY         0.00000   0.00000   0.00000  -0.19480   0.00000
   9        7PZ         0.08207  -0.03779   0.00000   0.00000   0.16530
  10        8PX         0.00000   0.00000  -0.44543   0.00000   0.00000
  11        8PY         0.00000   0.00000   0.00000  -0.44494   0.00000
  12        8PZ         0.15730  -0.09106   0.00000   0.00000   0.39710
  13        9PX         0.00000   0.00000   1.84676   0.00000   0.00000
  14        9PY         0.00000   0.00000   0.00000   1.84666   0.00000
  15        9PZ        -0.45529   0.30277   0.00000   0.00000  -1.82688
  16       10PX         0.00000   0.00000  -1.71889   0.00000   0.00000
  17       10PY         0.00000   0.00000   0.00000  -1.71498   0.00000
  18       10PZ         0.28230   0.74165   0.00000   0.00000   2.73454
  19       11PX         0.00000   0.00000   0.52546   0.00000   0.00000
  20       11PY         0.00000   0.00000   0.00000   0.51897   0.00000
  21       11PZ        -0.11788   0.49581   0.00000   0.00000  -0.45915
  22       12D 0        0.82487  -0.48963   0.00000   0.00000  -0.69005
  23       12D+1        0.00000   0.00000   0.04636   0.00000   0.00000
  24       12D-1        0.00000   0.00000   0.00000   0.04890   0.00000
  25       12D+2        0.02771  -0.00327   0.00000   0.00000  -0.00482
  26       12D-2        0.00000   0.00000   0.00000   0.00000   0.00000
  27 2   O  1S          0.05589   0.10416   0.00000   0.00000   0.00049
  28        2S          0.10531   0.21239   0.00000   0.00000   0.00134
  29        2PX         0.00000   0.00000   0.01457   0.00000   0.00000
  30        2PY         0.00000   0.00000   0.00000   0.01442   0.00000
  31        2PZ        -0.23811   0.06097   0.00000   0.00000  -0.01842
  32        3S         -0.61120  -1.70286   0.00000   0.00000  -0.12374
  33        3PX         0.00000   0.00000   0.04565   0.00000   0.00000
  34        3PY         0.00000   0.00000   0.00000   0.04472   0.00000
  35        3PZ        -0.61262   0.03627   0.00000   0.00000   0.18105
  36        4S          0.33041   2.96481   0.00000   0.00000   1.45304
  37        4PX         0.00000   0.00000   0.06276   0.00000   0.00000
  38        4PY         0.00000   0.00000   0.00000   0.06558   0.00000
  39        4PZ         0.58751   0.96666   0.00000   0.00000   0.91088
  40        5D 0        0.02164  -0.09503   0.00000   0.00000   0.08961
  41        5D+1        0.00000   0.00000  -0.00295   0.00000   0.00000
  42        5D-1        0.00000   0.00000   0.00000  -0.00353   0.00000
  43        5D+2       -0.00100   0.00007   0.00000   0.00000  -0.00021
  44        5D-2        0.00000   0.00000   0.00000   0.00000   0.00000
                          31        32        33        34        35
                           V         V         V         V         V
     Eigenvalues --     2.80167   2.80177   2.91510   2.93545   3.38116
   1 1   P  1S          0.00034   0.00000   0.00000   0.00000  -0.01651
   2        2S          0.00105   0.00000   0.00000   0.00000  -0.05364
   3        3S         -0.00351   0.00000   0.00000   0.00000   0.19964
   4        4S         -0.00162   0.00000   0.00000   0.00000   0.01636
   5        5S          0.01353   0.00000   0.00000   0.00000  -0.58801
   6        6S          0.01010   0.00000   0.00000   0.00000  -0.47440
   7        7PX         0.00000   0.00000   0.00539   0.00000   0.00000
   8        7PY         0.00000   0.00000   0.00000   0.00537   0.00000
   9        7PZ         0.00141   0.00000   0.00000   0.00000  -0.06627
  10        8PX         0.00000   0.00000  -0.00603   0.00000   0.00000
  11        8PY         0.00000   0.00000   0.00000  -0.00615   0.00000
  12        8PZ         0.00203   0.00000   0.00000   0.00000  -0.08085
  13        9PX         0.00000   0.00000   0.08115   0.00000   0.00000
  14        9PY         0.00000   0.00000   0.00000   0.08178   0.00000
  15        9PZ        -0.00685   0.00000   0.00000   0.00000   0.29746
  16       10PX         0.00000   0.00000  -0.24303   0.00000   0.00000
  17       10PY         0.00000   0.00000   0.00000  -0.24395   0.00000
  18       10PZ        -0.01508   0.00000   0.00000   0.00000   0.71413
  19       11PX         0.00000   0.00000   0.04168   0.00000   0.00000
  20       11PY         0.00000   0.00000   0.00000   0.04161   0.00000
  21       11PZ        -0.00042   0.00000   0.00000   0.00000   0.01091
  22       12D 0        0.01101   0.00000   0.00000   0.00000  -0.50716
  23       12D+1        0.00000   0.00000   0.28100   0.00000   0.00000
  24       12D-1        0.00000   0.00000   0.00000   0.28211   0.00000
  25       12D+2       -0.05607   0.00000   0.00000   0.00000  -0.00167
  26       12D-2        0.00000  -0.05610   0.00000   0.00000   0.00000
  27 2   O  1S          0.00065   0.00000   0.00000   0.00000   0.01390
  28        2S          0.00065   0.00000   0.00000   0.00000   0.03015
  29        2PX         0.00000   0.00000  -0.04878   0.00000   0.00000
  30        2PY         0.00000   0.00000   0.00000  -0.04866   0.00000
  31        2PZ        -0.00134   0.00000   0.00000   0.00000   0.10771
  32        3S          0.00268   0.00000   0.00000   0.00000  -0.41114
  33        3PX         0.00000   0.00000  -0.01207   0.00000   0.00000
  34        3PY         0.00000   0.00000   0.00000  -0.01247   0.00000
  35        3PZ         0.00148   0.00000   0.00000   0.00000  -0.11204
  36        4S         -0.02638   0.00000   0.00000   0.00000   1.25930
  37        4PX         0.00000   0.00000   0.15563   0.00000   0.00000
  38        4PY         0.00000   0.00000   0.00000   0.15610   0.00000
  39        4PZ        -0.01974   0.00000   0.00000   0.00000   0.92599
  40        5D 0       -0.01904   0.00000   0.00000   0.00000   1.09832
  41        5D+1        0.00000   0.00000   1.02123   0.00000   0.00000
  42        5D-1        0.00000   0.00000   0.00000   1.02115   0.00000
  43        5D+2        1.00011   0.00000   0.00000   0.00000   0.01739
  44        5D-2        0.00000   1.00028   0.00000   0.00000   0.00000
                          36        37        38        39        40
                           V         V         V         V         V
[...]
  22       12D 0        0.00000   0.00000   0.00000   0.00000   0.00000
  23       12D+1        0.00000   0.00000   0.00000   0.00000   0.00000
  24       12D-1        0.00000   0.00000   0.00000   0.00000   0.00000
  25       12D+2        0.00000   0.00000   0.00000   0.00000   0.00000
  26       12D-2        0.00000   0.00000   0.00000   0.00000   0.00000
  27 2   O  1S          0.00000   0.00000  -0.00052   0.00000   0.00000
  28        2S          0.00000   0.00000  -0.00095   0.00000   0.00000
  29        2PX         0.00437   0.00000   0.00000   0.00146   0.00000
  30        2PY         0.00000   0.00101   0.00000   0.00000  -0.00017
  31        2PZ         0.00000   0.00000   0.01190   0.00000   0.00000
  32        3S          0.00000   0.00000   0.01625   0.00000   0.00000
  33        3PX         0.02672   0.00000   0.00000   0.00918   0.00000
  34        3PY         0.00000   0.00718   0.00000   0.00000  -0.00054
  35        3PZ         0.00000   0.00000   0.05737   0.00000   0.00000
  36        4S          0.00000   0.00000  -0.00229   0.00000   0.00000
  37        4PX         0.07344   0.00000   0.00000   0.03109   0.00000
  38        4PY         0.00000  -0.00271   0.00000   0.00000  -0.01587
  39        4PZ         0.00000   0.00000   0.06183   0.00000   0.00000
  40        5D 0        0.00000   0.00000   0.00089   0.00000   0.00000
  41        5D+1        0.00132   0.00000   0.00000   0.00014   0.00000
  42        5D-1        0.00000   0.00106   0.00000   0.00000   0.00011
  43        5D+2        0.00000   0.00000   0.00000   0.00000   0.00000
  44        5D-2        0.00000   0.00000   0.00000   0.00000   0.00000
                          21        22        23        24        25
  21       11PZ         0.00649
  22       12D 0        0.00000   0.01536
  23       12D+1        0.00000   0.00000   0.01149
  24       12D-1        0.00000   0.00000   0.00000   0.01654
  25       12D+2        0.00000   0.00000   0.00000   0.00000   0.00052
  26       12D-2        0.00000   0.00000   0.00000   0.00000   0.00000
  27 2   O  1S          0.00000  -0.00040   0.00000   0.00000   0.00000
  28        2S         -0.00004  -0.00066   0.00000   0.00000   0.00000
  29        2PX         0.00000   0.00000   0.00136   0.00000   0.00000
  30        2PY         0.00000   0.00000   0.00000   0.00183   0.00000
  31        2PZ         0.00001   0.00431   0.00000   0.00000   0.00000
  32        3S          0.00152   0.01145   0.00000   0.00000   0.00000
  33        3PX         0.00000   0.00000   0.00862   0.00000   0.00000
  34        3PY         0.00000   0.00000   0.00000   0.01137   0.00000
  35        3PZ         0.00002   0.01767   0.00000   0.00000   0.00000
  36        4S          0.00375   0.00511   0.00000   0.00000   0.00000
  37        4PX         0.00000   0.00000   0.01465   0.00000   0.00000
  38        4PY         0.00000   0.00000   0.00000   0.02136   0.00000
  39        4PZ        -0.00065   0.00513   0.00000   0.00000   0.00000
  40        5D 0        0.00000   0.00073   0.00000   0.00000   0.00000
  41        5D+1        0.00000   0.00000   0.00066   0.00000   0.00000
  42        5D-1        0.00000   0.00000   0.00000   0.00065   0.00000
  43        5D+2        0.00000   0.00000   0.00000   0.00000   0.00000
  44        5D-2        0.00000   0.00000   0.00000   0.00000   0.00000
                          26        27        28        29        30
  26       12D-2        0.00000
  27 2   O  1S          0.00000   0.64034
  28        2S          0.00000   0.51456   0.52585
  29        2PX         0.00000   0.00000   0.00000   0.12250
  30        2PY         0.00000   0.00000   0.00000   0.00000   0.16065
  31        2PZ         0.00000   0.00000   0.00000   0.00000   0.00000
  32        3S          0.00000  -0.04950  -0.09474   0.00000   0.00000
  33        3PX         0.00000   0.00000   0.00000   0.10844   0.00000
  34        3PY         0.00000   0.00000   0.00000   0.00000   0.14022
  35        3PZ         0.00000   0.00000   0.00000   0.00000   0.00000
  36        4S          0.00000  -0.02106  -0.03569   0.00000   0.00000
  37        4PX         0.00000   0.00000   0.00000   0.03402   0.00000
  38        4PY         0.00000   0.00000   0.00000   0.00000   0.04701
  39        4PZ         0.00000   0.00000   0.00000   0.00000   0.00000
  40        5D 0        0.00000   0.00000   0.00000   0.00000   0.00000
  41        5D+1        0.00000   0.00000   0.00000   0.00000   0.00000
  42        5D-1        0.00000   0.00000   0.00000   0.00000   0.00000
  43        5D+2        0.00000   0.00000   0.00000   0.00000   0.00000
  44        5D-2        0.00000   0.00000   0.00000   0.00000   0.00000
                          31        32        33        34        35
  31        2PZ         0.14644
  32        3S          0.00000   0.72845
  33        3PX         0.00000   0.00000   0.25630
  34        3PY         0.00000   0.00000   0.00000   0.32692
  35        3PZ         0.12868   0.00000   0.00000   0.00000   0.30246
  36        4S          0.00000   0.45334   0.00000   0.00000   0.00000
  37        4PX         0.00000   0.00000   0.15598   0.00000   0.00000
  38        4PY         0.00000   0.00000   0.00000   0.21186   0.00000
  39        4PZ         0.03212   0.00000   0.00000   0.00000   0.14572
  40        5D 0        0.00000   0.00000   0.00000   0.00000   0.00000
  41        5D+1        0.00000   0.00000   0.00000   0.00000   0.00000
  42        5D-1        0.00000   0.00000   0.00000   0.00000   0.00000
  43        5D+2        0.00000   0.00000   0.00000   0.00000   0.00000
  44        5D-2        0.00000   0.00000   0.00000   0.00000   0.00000
                          36        37        38        39        40
  36        4S          0.53304
  37        4PX         0.00000   0.24300
  38        4PY         0.00000   0.00000   0.36094
  39        4PZ         0.00000   0.00000   0.00000   0.18308
  40        5D 0        0.00000   0.00000   0.00000   0.00000   0.00136
  41        5D+1        0.00000   0.00000   0.00000   0.00000   0.00000
  42        5D-1        0.00000   0.00000   0.00000   0.00000   0.00000
  43        5D+2        0.00000   0.00000   0.00000   0.00000   0.00000
  44        5D-2        0.00000   0.00000   0.00000   0.00000   0.00000
                          41        42        43        44
  41        5D+1        0.00122
  42        5D-1        0.00000   0.00118
  43        5D+2        0.00000   0.00000   0.00002
  44        5D-2        0.00000   0.00000   0.00000   0.00000
     Gross orbital populations:
                         Total     Alpha     Beta      Spin
   1 1   P  1S          0.79219   0.39610   0.39610   0.00000
   2        2S          1.17509   0.58754   0.58755  -0.00001
   3        3S          0.91198   0.45619   0.45580   0.00039
   4        4S          1.07204   0.53546   0.53659  -0.00113
   5        5S          1.04847   0.52899   0.51947   0.00952
   6        6S          0.87488   0.43669   0.43819  -0.00149
   7        7PX         0.66698   0.33359   0.33339   0.00020
   8        7PY         0.68048   0.34709   0.33339   0.01370
   9        7PZ         0.68002   0.33996   0.34005  -0.00009
  10        8PX         1.28407   0.64195   0.64212  -0.00018
  11        8PY         1.27753   0.63499   0.64254  -0.00755
  12        8PZ         1.27782   0.63890   0.63892  -0.00002
  13        9PX         0.14412   0.07225   0.07186   0.00039
  14        9PY         0.23672   0.16801   0.06871   0.09930
  15        9PZ         0.26778   0.13289   0.13489  -0.00200
  16       10PX         0.34726   0.17600   0.17126   0.00474
  17       10PY         0.76010   0.60391   0.15619   0.44772
  18       10PZ         0.45276   0.22456   0.22819  -0.00363
  19       11PX         0.11300   0.05601   0.05699  -0.00098
  20       11PY         0.31545   0.25581   0.05964   0.19618
  21       11PZ         0.03194   0.01360   0.01834  -0.00474
  22       12D 0        0.05870   0.03017   0.02854   0.00163
  23       12D+1        0.03678   0.01802   0.01876  -0.00074
  24       12D-1        0.05177   0.03199   0.01977   0.01222
  25       12D+2        0.00052   0.00006   0.00046  -0.00040
  26       12D-2        0.00000   0.00000   0.00000   0.00000
  27 2   O  1S          1.08407   0.54196   0.54212  -0.00016
  28        2S          0.90943   0.45476   0.45467   0.00009
  29        2PX         0.27249   0.13660   0.13589   0.00071
  30        2PY         0.35070   0.21358   0.13712   0.07646
  31        2PZ         0.32889   0.16511   0.16377   0.00134
  32        3S          1.05001   0.52961   0.52041   0.00920
  33        3PX         0.56859   0.28514   0.28345   0.00169
  34        3PY         0.69862   0.41412   0.28451   0.12961
  35        3PZ         0.68730   0.34484   0.34246   0.00238
  36        4S          0.85279   0.42363   0.42916  -0.00553
  37        4PX         0.56308   0.27864   0.28445  -0.00581
  38        4PY         0.62535   0.32906   0.29629   0.03277
  39        4PZ         0.43797   0.21632   0.22165  -0.00533
  40        5D 0        0.00533   0.00266   0.00267  -0.00002
  41        5D+1        0.00364   0.00181   0.00183  -0.00002
  42        5D-1        0.00327   0.00143   0.00183  -0.00040
  43        5D+2        0.00002   0.00000   0.00002  -0.00002
  44        5D-2        0.00000   0.00000   0.00000   0.00000
          Condensed to atoms (all electrons):
               1          2
     1  P   14.192555   0.365907
     2  O    0.365907   8.075630
          Atomic-Atomic Spin Densities.
               1          2
     1  P    0.928158  -0.165131
     2  O   -0.165131   0.402104
 Mulliken charges and spin densities:
               1          2
     1  P    0.441537   0.763027
     2  O   -0.441537   0.236973
 Sum of Mulliken charges =   0.00000   1.00000
 Mulliken charges and spin densities with hydrogens summed into heavy atoms:
               1          2
     1  P    0.441537   0.763027
     2  O   -0.441537   0.236973
 Electronic spatial extent (au):  <R**2>=             82.0196
 Charge=              0.0000 electrons
 Dipole moment (field-independent basis, Debye):
    X=              0.0000    Y=              0.0000    Z=              2.1955  Tot=              2.1955
 Quadrupole moment (field-independent basis, Debye-Ang):
   XX=            -16.1066   YY=            -19.1190   ZZ=            -19.3450
   XY=              0.0000   XZ=              0.0000   YZ=              0.0000
 Traceless Quadrupole moment (field-independent basis, Debye-Ang):
   XX=              2.0836   YY=             -0.9288   ZZ=             -1.1548
   XY=              0.0000   XZ=              0.0000   YZ=              0.0000
 Octapole moment (field-independent basis, Debye-Ang**2):
  XXX=              0.0000  YYY=              0.0000  ZZZ=             -1.1134  XYY=              0.0000
  XXY=              0.0000  XXZ=             -0.6026  XZZ=              0.0000  YZZ=              0.0000
  YYZ=             -2.3262  XYZ=              0.0000
 Hexadecapole moment (field-independent basis, Debye-Ang**3):
 XXXX=            -18.9462 YYYY=            -29.6999 ZZZZ=            -74.0510 XXXY=              0.0000
 XXXZ=              0.0000 YYYX=              0.0000 YYYZ=              0.0000 ZZZX=              0.0000
 ZZZY=              0.0000 XXYY=             -8.1075 XXZZ=            -14.9522 YYZZ=            -18.0154
 XXYZ=              0.0000 YYXZ=              0.0000 ZZXY=              0.0000
 N-N= 4.257527575995D+01 E-N=-1.075919867812D+03  KE= 4.159602407294D+02
 Symmetry A1   KE= 3.468381619550D+02
 Symmetry A2   KE= 3.255288017309D-35
 Symmetry B1   KE= 3.355035107199D+01
 Symmetry B2   KE= 3.557172770244D+01
 Orbital energies and kinetic energies (alpha):
                                 1                 2
   1         O               -77.117390        106.088852
   2         O               -19.156693         29.128624
   3         O                -6.611710         15.625721
   4         O                -4.775262         14.771701
   5         O                -4.772030         14.801096
   6         O                -4.769872         14.778833
   7         O                -1.028710          2.948981
   8         O                -0.561735          2.517885
   9         O                -0.409456          2.097355
  10         O                -0.393599          2.355353
  11         O                -0.393251          2.011363
  12         O                -0.199406          1.904228
  13         V                -0.128284          1.825856
  14         V                 0.015235          0.994159
  15         V                 0.152195          0.910742
  16         V                 0.155169          0.977530
  17         V                 0.219331          1.496323
  18         V                 0.349435          2.733075
  19         V                 0.613612          1.923870
  20         V                 0.616229          1.924327
  21         V                 0.640668          2.461597
  22         V                 0.647473          2.483801
  23         V                 0.747467          2.151825
  24         V                 0.853063          2.201656
  25         V                 0.853119          2.234311
  26         V                 1.062256          4.319510
  27         V                 1.199283          3.871752
  28         V                 1.396672          5.354515
  29         V                 1.397503          5.322734
  30         V                 1.464996          4.739444
  31         V                 2.776667          4.529907
  32         V                 2.777408          4.529920
  33         V                 2.914662          4.749708
  34         V                 2.914838          4.750165
  35         V                 3.379382          5.910244
  36         V                 4.736238         11.625441
  37         V                 4.742411         11.649461
  38         V                 4.928340         12.273061
  39         V                 6.686676         25.951343
  40         V                13.684486         44.132103
  41         V                13.686201         44.116247
  42         V                13.895414         44.205905
  43         V                49.696039        123.785519
  44         V               162.738655        420.961759
 Orbital energies and kinetic energies (beta):
                                 1                 2
   1         O               -77.113927        106.094228
   2         O               -19.148386         29.141479
   3         O                -6.608491         15.620751
   4         O                -4.773404         14.768845
   5         O                -4.768183         14.776374
   6         O                -4.760602         14.784503
   7         O                -1.012680          2.914519
   8         O                -0.535006          2.547787
   9         O                -0.386638          1.998443
  10         O                -0.377776          2.298775
  11         O                -0.361991          1.984545
  12         V                -0.118286          1.801496
  13         V                -0.088337          1.712446
  14         V                 0.022532          0.964072
  15         V                 0.157141          1.000098
  16         V                 0.171085          1.068041
  17         V                 0.227270          1.515792
  18         V                 0.360760          2.796370
  19         V                 0.651539          2.487063
  20         V                 0.652104          1.923881
  21         V                 0.652330          1.934155
  22         V                 0.678524          2.502193
  23         V                 0.751687          2.140178
  24         V                 0.855490          2.243875
  25         V                 0.872107          2.246833
  26         V                 1.075577          4.326418
  27         V                 1.206690          3.897291
  28         V                 1.401742          5.355186
  29         V                 1.428769          5.364562
  30         V                 1.470787          4.717948
  31         V                 2.800859          4.530303
  32         V                 2.800955          4.529896
  33         V                 2.918750          4.750190
  34         V                 2.939066          4.749970
  35         V                 3.390450          5.909226
  36         V                 4.748615         11.653316
  37         V                 4.770977         11.656215
  38         V                 4.935236         12.275096
  39         V                 6.692893         25.947624
  40         V                13.687226         44.132293
  41         V                13.701676         44.121497
  42         V                13.897944         44.205600
  43         V                49.704228        123.778933
  44         V               162.741866        420.959495
 Total kinetic energy from orbitals= 4.159602407294D+02
                          Isotropic Fermi Contact Couplings
        Atom                 a.u.       MegaHertz       Gauss      10(-4) cm-1
     1  P(31)              0.00994      18.00069       6.42309       6.00438
     2  O(17)              0.03018     -18.29707      -6.52885      -6.10325
 --------------------------------------------------------
       Center         ----  Spin Dipole Couplings  ----
                      3XX-RR        3YY-RR        3ZZ-RR
 --------------------------------------------------------
     1   Atom       -1.154484      2.359649     -1.205165
     2   Atom       -0.698072      1.354706     -0.656634
 --------------------------------------------------------
                        XY            XZ            YZ
 --------------------------------------------------------
     1   Atom        0.000000      0.000000      0.000000
     2   Atom        0.000000      0.000000      0.000000
 --------------------------------------------------------


 ---------------------------------------------------------------------------------
              Anisotropic Spin Dipole Couplings in Principal Axis System
 ---------------------------------------------------------------------------------

       Atom             a.u.   MegaHertz   Gauss  10(-4) cm-1        Axes

              Baa    -1.2052  -260.537   -92.966   -86.906  0.0000  0.0000  1.0000
     1 P(31)  Bbb    -1.1545  -249.581   -89.057   -83.251  1.0000  0.0000  0.0000
              Bcc     2.3596   510.118   182.023   170.157  0.0000  1.0000  0.0000
 
              Baa    -0.6981    50.512    18.024    16.849  1.0000  0.0000  0.0000
     2 O(17)  Bbb    -0.6566    47.514    16.954    15.849  0.0000  0.0000  1.0000
              Bcc     1.3547   -98.026   -34.978   -32.698  0.0000  1.0000  0.0000
 

 ---------------------------------------------------------------------------------

 No NMR shielding tensors so no spin-rotation constants.
 Leave Link  601 at Wed Apr  8 12:49:03 2026, MaxMem=    33554432 cpu:         0.1
 (Enter /opt/g09/g09/l9999.exe)
 1\1\GINC-KADET27\FOpt\UB3LYP\6-311G(d)\O1P1(2)\MDOROHUN\08-Apr-2026\0\
 \#p UB3LYP/6-311G(d) Opt Pop=Full\\PO optymalizacja baza 6-311G(d)\\0,
 2\P,0.,0.,0.004247167\O,0.,0.,1.495752833\\Version=ES64L-G09RevD.01\HF
 =-416.5772242\S2=0.752645\S2-1=0.\S2A=0.750004\RMSD=5.282e-09\RMSF=6.6
 66e-08\Dipole=0.,0.,-0.8637694\Quadrupole=1.5490986,-0.6905394,-0.8585
 592,0.,0.,0.\PG=C*V [C*(O1P1)]\\@


 ALMOST ALL THE CHEMICAL PROCESSES WHICH OCCUR IN NATURE,
 WHETHER IN ANIMAL OR VEGETABLE ORGANISMS,
 OR IN THE NON-LIVING SURFACE OF THE EARTH ... 
 TAKE PLACE BETWEEN SUBSTANCES IN SOLUTION

                                    -- W. OSTWALD, 1890
 Job cpu time:       0 days  0 hours  0 minutes  1.6 seconds.
 File lengths (MBytes):  RWF=      5 Int=      0 D2E=      0 Chk=      1 Scr=      1
 Normal termination of Gaussian 09 at Wed Apr  8 12:49:03 2026.
