 Entering Gaussian System, Link 0=/opt/g09/g09/g09
 Input=INPUTS/6_31G_d.inp
 Output=INPUTS/6_31G_d.log
 Initial command:
 /opt/g09/g09/l1.exe "/tmp/Gau-9653.inp" -scrdir="/tmp/"
 Entering Link 1 = /opt/g09/g09/l1.exe PID=      9655.
  
 Copyright (c) 1988,1990,1992,1993,1995,1998,2003,2009,2013,
            Gaussian, Inc.  All Rights Reserved.
  
 This is part of the Gaussian(R) 09 program.  It is based on
 the Gaussian(R) 03 system (copyright 2003, Gaussian, Inc.),
 the Gaussian(R) 98 system (copyright 1998, Gaussian, Inc.),
 the Gaussian(R) 94 system (copyright 1995, Gaussian, Inc.),
 the Gaussian 92(TM) system (copyright 1992, Gaussian, Inc.),
 the Gaussian 90(TM) system (copyright 1990, Gaussian, Inc.),
 the Gaussian 88(TM) system (copyright 1988, Gaussian, Inc.),
 the Gaussian 86(TM) system (copyright 1986, Carnegie Mellon
 University), and the Gaussian 82(TM) system (copyright 1983,
 Carnegie Mellon University). Gaussian is a federally registered
 trademark of Gaussian, Inc.
  
 This software contains proprietary and confidential information,
 including trade secrets, belonging to Gaussian, Inc.
  
 This software is provided under written license and may be
 used, copied, transmitted, or stored only in accord with that
 written license.
  
 The following legend is applicable only to US Government
 contracts under FAR:
  
                    RESTRICTED RIGHTS LEGEND
  
 Use, reproduction and disclosure by the US Government is
 subject to restrictions as set forth in subparagraphs (a)
 and (c) of the Commercial Computer Software - Restricted
 Rights clause in FAR 52.227-19.
  
 Gaussian, Inc.
 340 Quinnipiac St., Bldg. 40, Wallingford CT 06492
  
  
 ---------------------------------------------------------------
 Warning -- This program may not be used in any manner that
 competes with the business of Gaussian, Inc. or will provide
 assistance to any competitor of Gaussian, Inc.  The licensee
 of this program is prohibited from giving any competitor of
 Gaussian, Inc. access to this program.  By using this program,
 the user acknowledges that Gaussian, Inc. is engaged in the
 business of creating and licensing software in the field of
 computational chemistry and represents and warrants to the
 licensee that it is not a competitor of Gaussian, Inc. and that
 it will not use this program in any manner prohibited above.
 ---------------------------------------------------------------
  

 Cite this work as:
 Gaussian 09, Revision D.01,
 M. J. Frisch, G. W. Trucks, H. B. Schlegel, G. E. Scuseria, 
 M. A. Robb, J. R. Cheeseman, G. Scalmani, V. Barone, B. Mennucci, 
 G. A. Petersson, H. Nakatsuji, M. Caricato, X. Li, H. P. Hratchian, 
 A. F. Izmaylov, J. Bloino, G. Zheng, J. L. Sonnenberg, M. Hada, 
 M. Ehara, K. Toyota, R. Fukuda, J. Hasegawa, M. Ishida, T. Nakajima, 
 Y. Honda, O. Kitao, H. Nakai, T. Vreven, J. A. Montgomery, Jr., 
 J. E. Peralta, F. Ogliaro, M. Bearpark, J. J. Heyd, E. Brothers, 
 K. N. Kudin, V. N. Staroverov, T. Keith, R. Kobayashi, J. Normand, 
 K. Raghavachari, A. Rendell, J. C. Burant, S. S. Iyengar, J. Tomasi, 
 M. Cossi, N. Rega, J. M. Millam, M. Klene, J. E. Knox, J. B. Cross, 
 V. Bakken, C. Adamo, J. Jaramillo, R. Gomperts, R. E. Stratmann, 
 O. Yazyev, A. J. Austin, R. Cammi, C. Pomelli, J. W. Ochterski, 
 R. L. Martin, K. Morokuma, V. G. Zakrzewski, G. A. Voth, 
 P. Salvador, J. J. Dannenberg, S. Dapprich, A. D. Daniels, 
 O. Farkas, J. B. Foresman, J. V. Ortiz, J. Cioslowski, 
 and D. J. Fox, Gaussian, Inc., Wallingford CT, 2013.
 
 ******************************************
 Gaussian 09:  ES64L-G09RevD.01 24-Apr-2013
                 8-Apr-2026 
 ******************************************
 -------------------------------
 #p UB3LYP/6-31G(d) Opt Pop=Full
 -------------------------------
 1/14=-1,18=20,19=15,26=3,38=1/1,3;
 2/9=110,12=2,17=6,18=5,40=1/2;
 3/5=1,6=6,7=1,11=2,16=1,25=1,30=1,71=1,74=-5,116=2/1,2,3;
 4//1;
 5/5=2,38=5/2;
 6/7=3,28=1/1;
 7//1,2,3,16;
 1/14=-1,18=20,19=15,26=3/3(2);
 2/9=110/2;
 99//99;
 2/9=110/2;
 3/5=1,6=6,7=1,11=2,16=1,25=1,30=1,71=1,74=-5,116=2/1,2,3;
 4/5=5,16=3,69=1/1;
 5/5=2,38=5/2;
 7//1,2,3,16;
 1/14=-1,18=20,19=15,26=3/3(-5);
 2/9=110/2;
 6/7=3,19=2,28=1/1;
 99/9=1/99;
 Leave Link    1 at Wed Apr  8 12:47:17 2026, MaxMem=           0 cpu:         0.0
 (Enter /opt/g09/g09/l101.exe)
 ------------------------------
 PO optymalizacja baza 6-31G(d)
 ------------------------------
 Symbolic Z-matrix:
 Charge =  0 Multiplicity = 2
 P                     0.        0.        0. 
 O                     0.        0.        1.5 
 
 NAtoms=      2 NQM=        2 NQMF=       0 NMMI=      0 NMMIF=      0
                NMic=       0 NMicF=      0.
                    Isotopes and Nuclear Properties:
 (Nuclear quadrupole moments (NQMom) in fm**2, nuclear magnetic moments (NMagM)
  in nuclear magnetons)

  Atom         1           2
 IAtWgt=          31          16
 AtmWgt=  30.9737634  15.9949146
 NucSpn=           1           0
 AtZEff=   0.0000000   0.0000000
 NQMom=    0.0000000   0.0000000
 NMagM=    1.1316000   0.0000000
 AtZNuc=  15.0000000   8.0000000
 Leave Link  101 at Wed Apr  8 12:47:18 2026, MaxMem=    33554432 cpu:         0.0
 (Enter /opt/g09/g09/l103.exe)

 GradGradGradGradGradGradGradGradGradGradGradGradGradGradGradGradGradGrad
 Berny optimization.
 Initialization pass.
                           ----------------------------
                           !    Initial Parameters    !
                           ! (Angstroms and Degrees)  !
 --------------------------                            --------------------------
 ! Name  Definition              Value          Derivative Info.                !
 --------------------------------------------------------------------------------
 ! R1    R(1,2)                  1.5            estimate D2E/DX2                !
 --------------------------------------------------------------------------------
 Trust Radius=3.00D-01 FncErr=1.00D-07 GrdErr=1.00D-06
 Number of steps in this run=     20 maximum allowed number of steps=    100.
 GradGradGradGradGradGradGradGradGradGradGradGradGradGradGradGradGradGrad

 Leave Link  103 at Wed Apr  8 12:47:18 2026, MaxMem=    33554432 cpu:         0.0
 (Enter /opt/g09/g09/l202.exe)
                          Input orientation:                          
 ---------------------------------------------------------------------
 Center     Atomic      Atomic             Coordinates (Angstroms)
 Number     Number       Type             X           Y           Z
 ---------------------------------------------------------------------
      1         15           0        0.000000    0.000000    0.000000
      2          8           0        0.000000    0.000000    1.500000
 ---------------------------------------------------------------------
 Stoichiometry    OP(2)
 Framework group  C*V[C*(OP)]
 Deg. of freedom     1
 Full point group                 C*V     NOp   4
 Largest Abelian subgroup         C2V     NOp   4
 Largest concise Abelian subgroup C1      NOp   1
                         Standard orientation:                         
 ---------------------------------------------------------------------
 Center     Atomic      Atomic             Coordinates (Angstroms)
 Number     Number       Type             X           Y           Z
 ---------------------------------------------------------------------
      1         15           0        0.000000    0.000000    0.521739
      2          8           0        0.000000    0.000000   -0.978261
 ---------------------------------------------------------------------
 Rotational constants (GHZ):      0.0000000     21.2944835     21.2944835
 Leave Link  202 at Wed Apr  8 12:47:18 2026, MaxMem=    33554432 cpu:         0.0
 (Enter /opt/g09/g09/l301.exe)
 Standard basis: 6-31G(d) (6D, 7F)
 Ernie: Thresh=  0.10000D-02 Tol=  0.10000D-05 Strict=F.
 There are    18 symmetry adapted cartesian basis functions of A1  symmetry.
 There are     2 symmetry adapted cartesian basis functions of A2  symmetry.
 There are     7 symmetry adapted cartesian basis functions of B1  symmetry.
 There are     7 symmetry adapted cartesian basis functions of B2  symmetry.
 There are    18 symmetry adapted basis functions of A1  symmetry.
 There are     2 symmetry adapted basis functions of A2  symmetry.
 There are     7 symmetry adapted basis functions of B1  symmetry.
 There are     7 symmetry adapted basis functions of B2  symmetry.
    34 basis functions,    80 primitive gaussians,    34 cartesian basis functions
    12 alpha electrons       11 beta electrons
       nuclear repulsion energy        42.3341766872 Hartrees.
 IExCor=  402 DFT=T Ex+Corr=B3LYP ExCW=0 ScaHFX=  0.200000
 ScaDFX=  0.800000  0.720000  1.000000  0.810000 ScalE2=  1.000000  1.000000
 IRadAn=      0 IRanWt=     -1 IRanGd=            0 ICorTp=0 IEmpDi=  4
 NAtoms=    2 NActive=    2 NUniq=    2 SFac= 1.00D+00 NAtFMM=   60 NAOKFM=F Big=F
 Integral buffers will be    131072 words long.
 Raffenetti 2 integral format.
 Two-electron integral symmetry is turned on.
 Leave Link  301 at Wed Apr  8 12:47:18 2026, MaxMem=    33554432 cpu:         0.0
 (Enter /opt/g09/g09/l302.exe)
 NPDir=0 NMtPBC=     1 NCelOv=     1 NCel=       1 NClECP=     1 NCelD=      1
         NCelK=      1 NCelE2=     1 NClLst=     1 CellRange=     0.0.
 One-electron integrals computed using PRISM.
 NBasis=    34 RedAO= T EigKep=  2.42D-02  NBF=    18     2     7     7
 NBsUse=    34 1.00D-06 EigRej= -1.00D+00 NBFU=    18     2     7     7
 Precomputing XC quadrature grid using
 IXCGrd= 4 IRadAn=           0 IRanWt=          -1 IRanGd=           0 AccXCQ= 0.00D+00.
 Generated NRdTot=       0 NPtTot=           0 NUsed=           0 NTot=          32
 NSgBfM=    34    34    34    34    34 MxSgAt=     2 MxSgA2=     2.
 Leave Link  302 at Wed Apr  8 12:47:18 2026, MaxMem=    33554432 cpu:         0.0
 (Enter /opt/g09/g09/l303.exe)
 DipDrv:  MaxL=1.
 Leave Link  303 at Wed Apr  8 12:47:18 2026, MaxMem=    33554432 cpu:         0.0
 (Enter /opt/g09/g09/l401.exe)
 ExpMin= 9.98D-02 ExpMax= 1.94D+04 ExpMxC= 2.91D+03 IAcc=2 IRadAn=         4 AccDes= 0.00D+00
 Harris functional with IExCor=  402 and IRadAn=       4 diagonalized for initial guess.
 HarFok:  IExCor=  402 AccDes= 0.00D+00 IRadAn=         4 IDoV= 1 UseB2=F ITyADJ=14
 ICtDFT=  3500011 ScaDFX=  1.000000  1.000000  1.000000  1.000000
 FoFCou: FMM=F IPFlag=           0 FMFlag=      100000 FMFlg1=           0
         NFxFlg=           0 DoJE=T BraDBF=F KetDBF=T FulRan=T
         wScrn=  0.000000 ICntrl=     500 IOpCl=  0 I1Cent=   200000004 NGrid=           0
         NMat0=    1 NMatS0=      1 NMatT0=    0 NMatD0=    1 NMtDS0=    0 NMtDT0=    0
 Petite list used in FoFCou.
 Harris En= -416.538266615447    
 JPrj=0 DoOrth=F DoCkMO=F.
 Initial guess orbital symmetries:
 Alpha Orbitals:
       Occupied  (SG) (SG) (SG) (SG) (PI) (PI) (SG) (SG) (PI) (PI)
                 (SG) (PI)
       Virtual   (PI) (SG) (SG) (PI) (PI) (SG) (PI) (PI) (DLTA)
                 (DLTA) (SG) (PI) (PI) (SG) (SG) (DLTA) (DLTA)
                 (PI) (PI) (SG) (SG) (SG)
 Beta  Orbitals:
       Occupied  (SG) (SG) (SG) (SG) (PI) (PI) (SG) (SG) (PI) (PI)
                 (SG)
       Virtual   (PI) (PI) (SG) (SG) (PI) (PI) (SG) (PI) (PI) (DLTA)
                 (DLTA) (SG) (PI) (PI) (SG) (SG) (DLTA) (DLTA)
                 (PI) (PI) (SG) (SG) (SG)
 Initial guess <Sx>= 0.0000 <Sy>= 0.0000 <Sz>= 0.5000 <S**2>= 0.7500 S= 0.5000
 Leave Link  401 at Wed Apr  8 12:47:18 2026, MaxMem=    33554432 cpu:         0.1
 (Enter /opt/g09/g09/l502.exe)
 UHF open shell SCF:
 Using DIIS extrapolation, IDIIS=  1040.
 Integral symmetry usage will be decided dynamically.
 Keep R1 and R2 ints in memory in symmetry-blocked form, NReq=1062286.
 IVT=       22512 IEndB=       22512 NGot=    33554432 MDV=    33429621
 LenX=    33429621 LenY=    33428024
 Requested convergence on RMS density matrix=1.00D-08 within 128 cycles.
 Requested convergence on MAX density matrix=1.00D-06.
 Requested convergence on             energy=1.00D-06.
 No special actions if energy rises.
 FoFCou: FMM=F IPFlag=           0 FMFlag=           0 FMFlg1=           0
         NFxFlg=           0 DoJE=F BraDBF=F KetDBF=F FulRan=T
         wScrn=  0.000000 ICntrl=     600 IOpCl=  0 I1Cent=           0 NGrid=           0
         NMat0=    1 NMatS0=    595 NMatT0=    0 NMatD0=    1 NMtDS0=    0 NMtDT0=    0
 Petite list used in FoFCou.
 Integral accuracy reduced to 1.0D-05 until final iterations.

 Cycle   1  Pass 0  IDiag  1:
 E= -416.349562908363    
 DIIS: error= 6.73D-02 at cycle   1 NSaved=   1.
 NSaved= 1 IEnMin= 1 EnMin= -416.349562908363     IErMin= 1 ErrMin= 6.73D-02
 ErrMax= 6.73D-02  0.00D+00 EMaxC= 1.00D-01 BMatC= 8.04D-01 BMatP= 8.04D-01
 IDIUse=3 WtCom= 3.27D-01 WtEn= 6.73D-01
 Coeff-Com:  0.100D+01
 Coeff-En:   0.100D+01
 Coeff:      0.100D+01
 Gap=    -0.029 Goal=   None    Shift=    0.000
 Gap=     0.037 Goal=   None    Shift=    0.000
 GapD=   -0.029 DampG=0.250 DampE=0.500 DampFc=0.2500 IDamp=-1.
 Damping current iteration by 2.50D-01
 RMSDP=3.78D-02 MaxDP=4.24D-01              OVMax= 7.32D-01

 Cycle   2  Pass 0  IDiag  1:
 E= -416.385851327813     Delta-E=       -0.036288419450 Rises=F Damp=T
 DIIS: error= 1.21D-02 at cycle   2 NSaved=   2.
 NSaved= 2 IEnMin= 2 EnMin= -416.385851327813     IErMin= 2 ErrMin= 1.21D-02
 ErrMax= 1.21D-02  0.00D+00 EMaxC= 1.00D-01 BMatC= 2.39D-02 BMatP= 8.04D-01
 IDIUse=3 WtCom= 8.79D-01 WtEn= 1.21D-01
 Coeff-Com: -0.833D-02 0.101D+01
 Coeff-En:   0.381D+00 0.619D+00
 Coeff:      0.387D-01 0.961D+00
 Gap=     0.072 Goal=   None    Shift=    0.000
 Gap=     0.082 Goal=   None    Shift=    0.000
 RMSDP=5.76D-03 MaxDP=6.17D-02 DE=-3.63D-02 OVMax= 6.02D-01

 Cycle   3  Pass 0  IDiag  1:
 E= -416.526056083192     Delta-E=       -0.140204755379 Rises=F Damp=F
 DIIS: error= 1.13D-02 at cycle   3 NSaved=   3.
 NSaved= 3 IEnMin= 3 EnMin= -416.526056083192     IErMin= 3 ErrMin= 1.13D-02
 ErrMax= 1.13D-02  0.00D+00 EMaxC= 1.00D-01 BMatC= 1.25D-02 BMatP= 2.39D-02
 IDIUse=3 WtCom= 8.87D-01 WtEn= 1.13D-01
 Coeff-Com: -0.874D-01 0.278D+00 0.809D+00
 Coeff-En:   0.000D+00 0.000D+00 0.100D+01
 Coeff:     -0.775D-01 0.247D+00 0.831D+00
 Gap=     0.069 Goal=   None    Shift=    0.000
 Gap=     0.233 Goal=   None    Shift=    0.000
 RMSDP=2.32D-03 MaxDP=1.99D-02 DE=-1.40D-01 OVMax= 4.34D-02

 Cycle   4  Pass 0  IDiag  1:
 E= -416.530317471947     Delta-E=       -0.004261388755 Rises=F Damp=F
 DIIS: error= 2.73D-03 at cycle   4 NSaved=   4.
 NSaved= 4 IEnMin= 4 EnMin= -416.530317471947     IErMin= 4 ErrMin= 2.73D-03
 ErrMax= 2.73D-03  0.00D+00 EMaxC= 1.00D-01 BMatC= 1.11D-03 BMatP= 1.25D-02
 IDIUse=3 WtCom= 9.73D-01 WtEn= 2.73D-02
 Coeff-Com:  0.272D-01-0.562D-01 0.709D-01 0.958D+00
 Coeff-En:   0.000D+00 0.000D+00 0.000D+00 0.100D+01
 Coeff:      0.265D-01-0.546D-01 0.690D-01 0.959D+00
 Gap=     0.072 Goal=   None    Shift=    0.000
 Gap=     0.240 Goal=   None    Shift=    0.000
 RMSDP=3.12D-04 MaxDP=5.10D-03 DE=-4.26D-03 OVMax= 4.48D-03

 Cycle   5  Pass 0  IDiag  1:
 E= -416.530517564778     Delta-E=       -0.000200092832 Rises=F Damp=F
 DIIS: error= 1.40D-03 at cycle   5 NSaved=   5.
 NSaved= 5 IEnMin= 5 EnMin= -416.530517564778     IErMin= 5 ErrMin= 1.40D-03
 ErrMax= 1.40D-03  0.00D+00 EMaxC= 1.00D-01 BMatC= 2.51D-04 BMatP= 1.11D-03
 IDIUse=3 WtCom= 9.86D-01 WtEn= 1.40D-02
 Coeff-Com:  0.151D-01-0.238D-01 0.283D-01 0.393D-01 0.941D+00
 Coeff-En:   0.000D+00 0.000D+00 0.000D+00 0.000D+00 0.100D+01
 Coeff:      0.149D-01-0.234D-01 0.280D-01 0.387D-01 0.942D+00
 Gap=     0.072 Goal=   None    Shift=    0.000
 Gap=     0.240 Goal=   None    Shift=    0.000
 RMSDP=1.39D-04 MaxDP=1.53D-03 DE=-2.00D-04 OVMax= 3.14D-03

 Cycle   6  Pass 0  IDiag  1:
 E= -416.530574208729     Delta-E=       -0.000056643951 Rises=F Damp=F
 DIIS: error= 4.62D-04 at cycle   6 NSaved=   6.
 NSaved= 6 IEnMin= 6 EnMin= -416.530574208729     IErMin= 6 ErrMin= 4.62D-04
 ErrMax= 4.62D-04  0.00D+00 EMaxC= 1.00D-01 BMatC= 2.20D-05 BMatP= 2.51D-04
 IDIUse=3 WtCom= 9.95D-01 WtEn= 4.62D-03
 Coeff-Com:  0.127D-02-0.131D-02 0.132D-01-0.685D-01-0.208D-01 0.108D+01
 Coeff-En:   0.000D+00 0.000D+00 0.000D+00 0.000D+00 0.000D+00 0.100D+01
 Coeff:      0.126D-02-0.130D-02 0.131D-01-0.682D-01-0.207D-01 0.108D+01
 Gap=     0.072 Goal=   None    Shift=    0.000
 Gap=     0.240 Goal=   None    Shift=    0.000
 RMSDP=5.43D-05 MaxDP=7.79D-04 DE=-5.66D-05 OVMax= 1.53D-03

 Cycle   7  Pass 0  IDiag  1:
 E= -416.530579941425     Delta-E=       -0.000005732695 Rises=F Damp=F
 DIIS: error= 4.94D-05 at cycle   7 NSaved=   7.
 NSaved= 7 IEnMin= 7 EnMin= -416.530579941425     IErMin= 7 ErrMin= 4.94D-05
 ErrMax= 4.94D-05  0.00D+00 EMaxC= 1.00D-01 BMatC= 1.77D-07 BMatP= 2.20D-05
 IDIUse=1 WtCom= 1.00D+00 WtEn= 0.00D+00
 Coeff-Com: -0.573D-03 0.128D-02 0.175D-02-0.151D-01-0.656D-01 0.202D+00
 Coeff-Com:  0.876D+00
 Coeff:     -0.573D-03 0.128D-02 0.175D-02-0.151D-01-0.656D-01 0.202D+00
 Coeff:      0.876D+00
 Gap=     0.072 Goal=   None    Shift=    0.000
 Gap=     0.240 Goal=   None    Shift=    0.000
 RMSDP=1.45D-05 MaxDP=2.26D-04 DE=-5.73D-06 OVMax= 4.41D-04

 Cycle   8  Pass 0  IDiag  1:
 E= -416.530580023722     Delta-E=       -0.000000082297 Rises=F Damp=F
 DIIS: error= 3.76D-05 at cycle   8 NSaved=   8.
 NSaved= 8 IEnMin= 8 EnMin= -416.530580023722     IErMin= 8 ErrMin= 3.76D-05
 ErrMax= 3.76D-05  0.00D+00 EMaxC= 1.00D-01 BMatC= 1.03D-07 BMatP= 1.77D-07
 IDIUse=1 WtCom= 1.00D+00 WtEn= 0.00D+00
 Coeff-Com: -0.206D-03 0.284D-04-0.330D-02 0.980D-02 0.284D-01-0.177D+00
 Coeff-Com: -0.199D+00 0.134D+01
 Coeff:     -0.206D-03 0.284D-04-0.330D-02 0.980D-02 0.284D-01-0.177D+00
 Coeff:     -0.199D+00 0.134D+01
 Gap=     0.072 Goal=   None    Shift=    0.000
 Gap=     0.240 Goal=   None    Shift=    0.000
 RMSDP=8.55D-06 MaxDP=1.33D-04 DE=-8.23D-08 OVMax= 2.64D-04

 Initial convergence to 1.0D-05 achieved.  Increase integral accuracy.
 Cycle   9  Pass 1  IDiag  1:
 E= -416.530566064942     Delta-E=        0.000013958780 Rises=F Damp=F
 DIIS: error= 3.77D-05 at cycle   1 NSaved=   1.
 NSaved= 1 IEnMin= 1 EnMin= -416.530566064942     IErMin= 1 ErrMin= 3.77D-05
 ErrMax= 3.77D-05  0.00D+00 EMaxC= 1.00D-01 BMatC= 6.12D-08 BMatP= 6.12D-08
 IDIUse=1 WtCom= 1.00D+00 WtEn= 0.00D+00
 Coeff-Com:  0.100D+01
 Coeff:      0.100D+01
 Gap=     0.072 Goal=   None    Shift=    0.000
 Gap=     0.240 Goal=   None    Shift=    0.000
 RMSDP=8.55D-06 MaxDP=1.33D-04 DE= 1.40D-05 OVMax= 1.14D-04

 Cycle  10  Pass 1  IDiag  1:
 E= -416.530566084168     Delta-E=       -0.000000019226 Rises=F Damp=F
 DIIS: error= 9.76D-06 at cycle   2 NSaved=   2.
 NSaved= 2 IEnMin= 2 EnMin= -416.530566084168     IErMin= 2 ErrMin= 9.76D-06
 ErrMax= 9.76D-06  0.00D+00 EMaxC= 1.00D-01 BMatC= 6.25D-09 BMatP= 6.12D-08
 IDIUse=1 WtCom= 1.00D+00 WtEn= 0.00D+00
 Coeff-Com:  0.820D-01 0.918D+00
 Coeff:      0.820D-01 0.918D+00
 Gap=     0.072 Goal=   None    Shift=    0.000
 Gap=     0.240 Goal=   None    Shift=    0.000
 RMSDP=2.69D-06 MaxDP=5.01D-05 DE=-1.92D-08 OVMax= 8.88D-05

 Cycle  11  Pass 1  IDiag  1:
 E= -416.530566082580     Delta-E=        0.000000001588 Rises=F Damp=F
 DIIS: error= 1.47D-05 at cycle   3 NSaved=   3.
 NSaved= 3 IEnMin= 2 EnMin= -416.530566084168     IErMin= 2 ErrMin= 9.76D-06
 ErrMax= 1.47D-05  0.00D+00 EMaxC= 1.00D-01 BMatC= 2.43D-08 BMatP= 6.25D-09
 IDIUse=1 WtCom= 1.00D+00 WtEn= 0.00D+00
 Coeff-Com: -0.184D-01 0.698D+00 0.321D+00
 Coeff:     -0.184D-01 0.698D+00 0.321D+00
 Gap=     0.072 Goal=   None    Shift=    0.000
 Gap=     0.240 Goal=   None    Shift=    0.000
 RMSDP=1.72D-06 MaxDP=2.71D-05 DE= 1.59D-09 OVMax= 4.92D-05

 Cycle  12  Pass 1  IDiag  1:
 E= -416.530566087951     Delta-E=       -0.000000005371 Rises=F Damp=F
 DIIS: error= 4.20D-06 at cycle   4 NSaved=   4.
 NSaved= 4 IEnMin= 4 EnMin= -416.530566087951     IErMin= 4 ErrMin= 4.20D-06
 ErrMax= 4.20D-06  0.00D+00 EMaxC= 1.00D-01 BMatC= 1.12D-09 BMatP= 6.25D-09
 IDIUse=1 WtCom= 1.00D+00 WtEn= 0.00D+00
 Coeff-Com: -0.155D-01 0.857D-01 0.155D+00 0.775D+00
 Coeff:     -0.155D-01 0.857D-01 0.155D+00 0.775D+00
 Gap=     0.072 Goal=   None    Shift=    0.000
 Gap=     0.240 Goal=   None    Shift=    0.000
 RMSDP=9.56D-07 MaxDP=1.64D-05 DE=-5.37D-09 OVMax= 3.22D-05

 Cycle  13  Pass 1  IDiag  1:
 E= -416.530566088840     Delta-E=       -0.000000000889 Rises=F Damp=F
 DIIS: error= 1.78D-06 at cycle   5 NSaved=   5.
 NSaved= 5 IEnMin= 5 EnMin= -416.530566088840     IErMin= 5 ErrMin= 1.78D-06
 ErrMax= 1.78D-06  0.00D+00 EMaxC= 1.00D-01 BMatC= 2.20D-10 BMatP= 1.12D-09
 IDIUse=1 WtCom= 1.00D+00 WtEn= 0.00D+00
 Coeff-Com:  0.407D-02-0.326D+00-0.173D+00-0.208D+00 0.170D+01
 Coeff:      0.407D-02-0.326D+00-0.173D+00-0.208D+00 0.170D+01
 Gap=     0.072 Goal=   None    Shift=    0.000
 Gap=     0.240 Goal=   None    Shift=    0.000
 RMSDP=1.43D-06 MaxDP=2.44D-05 DE=-8.89D-10 OVMax= 4.64D-05

 Cycle  14  Pass 1  IDiag  1:
 E= -416.530566089521     Delta-E=       -0.000000000681 Rises=F Damp=F
 DIIS: error= 5.58D-07 at cycle   6 NSaved=   6.
 NSaved= 6 IEnMin= 6 EnMin= -416.530566089521     IErMin= 6 ErrMin= 5.58D-07
 ErrMax= 5.58D-07  0.00D+00 EMaxC= 1.00D-01 BMatC= 1.62D-11 BMatP= 2.20D-10
 IDIUse=1 WtCom= 1.00D+00 WtEn= 0.00D+00
 Coeff-Com:  0.272D-02-0.112D-01-0.862D-02-0.112D+00-0.678D-01 0.120D+01
 Coeff:      0.272D-02-0.112D-01-0.862D-02-0.112D+00-0.678D-01 0.120D+01
 Gap=     0.072 Goal=   None    Shift=    0.000
 Gap=     0.240 Goal=   None    Shift=    0.000
 RMSDP=4.11D-07 MaxDP=7.29D-06 DE=-6.81D-10 OVMax= 1.41D-05

 Cycle  15  Pass 1  IDiag  1:
 E= -416.530566089562     Delta-E=       -0.000000000041 Rises=F Damp=F
 DIIS: error= 6.73D-08 at cycle   7 NSaved=   7.
 NSaved= 7 IEnMin= 7 EnMin= -416.530566089562     IErMin= 7 ErrMin= 6.73D-08
 ErrMax= 6.73D-08  0.00D+00 EMaxC= 1.00D-01 BMatC= 3.63D-13 BMatP= 1.62D-11
 IDIUse=1 WtCom= 1.00D+00 WtEn= 0.00D+00
 Coeff-Com: -0.278D-03 0.156D-01 0.543D-02 0.116D-01-0.632D-01-0.620D-01
 Coeff-Com:  0.109D+01
 Coeff:     -0.278D-03 0.156D-01 0.543D-02 0.116D-01-0.632D-01-0.620D-01
 Coeff:      0.109D+01
 Gap=     0.072 Goal=   None    Shift=    0.000
 Gap=     0.240 Goal=   None    Shift=    0.000
 RMSDP=3.54D-08 MaxDP=5.24D-07 DE=-4.08D-11 OVMax= 1.01D-06

 Cycle  16  Pass 1  IDiag  1:
 E= -416.530566089562     Delta-E=        0.000000000000 Rises=F Damp=F
 DIIS: error= 1.31D-08 at cycle   8 NSaved=   8.
 NSaved= 8 IEnMin= 8 EnMin= -416.530566089562     IErMin= 8 ErrMin= 1.31D-08
 ErrMax= 1.31D-08  0.00D+00 EMaxC= 1.00D-01 BMatC= 1.16D-14 BMatP= 3.63D-13
 IDIUse=1 WtCom= 1.00D+00 WtEn= 0.00D+00
 Coeff-Com: -0.799D-04-0.512D-05 0.471D-03 0.189D-02 0.435D-02-0.316D-01
 Coeff-Com: -0.485D-01 0.107D+01
 Coeff:     -0.799D-04-0.512D-05 0.471D-03 0.189D-02 0.435D-02-0.316D-01
 Coeff:     -0.485D-01 0.107D+01
 Gap=     0.072 Goal=   None    Shift=    0.000
 Gap=     0.240 Goal=   None    Shift=    0.000
 RMSDP=4.47D-09 MaxDP=5.88D-08 DE=-3.98D-13 OVMax= 1.11D-07

 SCF Done:  E(UB3LYP) =  -416.530566090     A.U. after   16 cycles
            NFock= 16  Conv=0.45D-08     -V/T= 2.0044
 <Sx>= 0.0000 <Sy>= 0.0000 <Sz>= 0.5000 <S**2>= 0.7526 S= 0.5013
 <L.S>= 0.000000000000E+00
 KE= 4.147097656078D+02 PE=-1.073976597427D+03 EE= 2.004020890427D+02
 Annihilation of the first spin contaminant:
 S**2 before annihilation     0.7526,   after     0.7500
 Leave Link  502 at Wed Apr  8 12:47:19 2026, MaxMem=    33554432 cpu:         0.2
 (Enter /opt/g09/g09/l601.exe)
 Copying SCF densities to generalized density rwf, IOpCl= 1 IROHF=0.

 **********************************************************************

            Population analysis using the SCF density.

 **********************************************************************

 Orbital symmetries:
 Alpha Orbitals:
       Occupied  (SG) (SG) (SG) (PI) (PI) (SG) (SG) (SG) (PI) (SG)
                 (PI) (PI)
       Virtual   (PI) (SG) (SG) (PI) (PI) (SG) (DLTA) (DLTA) (PI)
                 (PI) (SG) (PI) (PI) (SG) (SG) (DLTA) (DLTA) (PI)
                 (PI) (SG) (SG) (SG)
 Beta  Orbitals:
       Occupied  (SG) (SG) (SG) (PI) (SG) (PI) (SG) (SG) (PI) (SG)
                 (PI)
       Virtual   (PI) (PI) (SG) (SG) (PI) (PI) (SG) (?A) (?A) (PI)
                 (PI) (?A) (PI) (PI) (SG) (SG) (DLTA) (DLTA) (PI)
                 (PI) (SG) (SG) (SG)
 Unable to determine electronic state:  partially filled degenerate orbitals.
 Alpha  occ. eigenvalues --  -77.15304 -19.19015  -6.62106  -4.78545  -4.78196
 Alpha  occ. eigenvalues --   -4.78002  -1.01867  -0.55828  -0.40102  -0.38764
 Alpha  occ. eigenvalues --   -0.38498  -0.19541
 Alpha virt. eigenvalues --   -0.12358   0.02930   0.22050   0.28054   0.28264
 Alpha virt. eigenvalues --    0.39957   0.61707   0.61972   0.65422   0.66025
 Alpha virt. eigenvalues --    0.80803   0.96756   0.97061   1.11535   1.19451
 Alpha virt. eigenvalues --    1.77683   1.77736   2.00411   2.00628   2.71141
 Alpha virt. eigenvalues --    3.39788   3.53600
  Beta  occ. eigenvalues --  -77.14991 -19.18230  -6.61786  -4.78369  -4.77841
  Beta  occ. eigenvalues --   -4.77105  -1.00256  -0.53117  -0.37845  -0.37188
  Beta  occ. eigenvalues --   -0.35342
  Beta virt. eigenvalues --   -0.11310  -0.08160   0.03909   0.23118   0.28614
  Beta virt. eigenvalues --    0.30571   0.40558   0.65574   0.65592   0.66391
  Beta virt. eigenvalues --    0.69159   0.81501   0.97396   0.99122   1.12731
  Beta virt. eigenvalues --    1.19854   1.79319   1.79324   2.00673   2.02611
  Beta virt. eigenvalues --    2.71977   3.40863   3.54758
     Alpha Molecular Orbital Coefficients:
                           1         2         3         4         5
                           O         O         O         O         O
     Eigenvalues --   -77.15304 -19.19015  -6.62106  -4.78545  -4.78196
   1 1   P  1S          0.99626   0.00001  -0.27420   0.00000   0.00000
   2        2S          0.01417  -0.00010   1.02347   0.00000   0.00000
   3        2PX         0.00000   0.00000   0.00000   0.99207   0.00000
   4        2PY         0.00000   0.00000   0.00000   0.00000   0.99232
   5        2PZ        -0.00008   0.00001  -0.00464   0.00000   0.00000
   6        3S         -0.02668   0.00064   0.07634   0.00000   0.00000
   7        3PX         0.00000   0.00000   0.00000   0.02780   0.00000
   8        3PY         0.00000   0.00000   0.00000   0.00000   0.02692
   9        3PZ         0.00022  -0.00031  -0.00203   0.00000   0.00000
  10        4S          0.00350  -0.00137  -0.01333   0.00000   0.00000
  11        4PX         0.00000   0.00000   0.00000  -0.00773   0.00000
  12        4PY         0.00000   0.00000   0.00000   0.00000  -0.00732
  13        4PZ         0.00006   0.00114  -0.00028   0.00000   0.00000
  14        5XX         0.00939  -0.00019  -0.01891   0.00000   0.00000
  15        5YY         0.00939  -0.00021  -0.01911   0.00000   0.00000
  16        5ZZ         0.00928   0.00002  -0.01789   0.00000   0.00000
  17        5XY         0.00000   0.00000   0.00000   0.00000   0.00000
  18        5XZ         0.00000   0.00000   0.00000  -0.00046   0.00000
  19        5YZ         0.00000   0.00000   0.00000   0.00000  -0.00034
  20 2   O  1S          0.00003   0.99281  -0.00027   0.00000   0.00000
  21        2S          0.00002   0.02628   0.00039   0.00000   0.00000
  22        2PX         0.00000   0.00000   0.00000   0.00005   0.00000
  23        2PY         0.00000   0.00000   0.00000   0.00000   0.00011
  24        2PZ        -0.00017   0.00084   0.00081   0.00000   0.00000
  25        3S          0.00019   0.01029  -0.00223   0.00000   0.00000
  26        3PX         0.00000   0.00000   0.00000  -0.00047   0.00000
  27        3PY         0.00000   0.00000   0.00000   0.00000  -0.00043
  28        3PZ         0.00042   0.00003  -0.00278   0.00000   0.00000
  29        4XX         0.00011  -0.00788  -0.00012   0.00000   0.00000
  30        4YY         0.00011  -0.00778  -0.00013   0.00000   0.00000
  31        4ZZ        -0.00008  -0.00793   0.00048   0.00000   0.00000
  32        4XY         0.00000   0.00000   0.00000   0.00000   0.00000
  33        4XZ         0.00000   0.00000   0.00000  -0.00045   0.00000
  34        4YZ         0.00000   0.00000   0.00000   0.00000  -0.00037
                           6         7         8         9        10
                           O         O         O         O         O
     Eigenvalues --    -4.78002  -1.01867  -0.55828  -0.40102  -0.38764
   1 1   P  1S         -0.00139   0.02827   0.06720   0.00000  -0.02062
   2        2S          0.00511  -0.12987  -0.30299   0.00000   0.10114
   3        2PX         0.00000   0.00000   0.00000   0.00000   0.00000
   4        2PY         0.00000   0.00000   0.00000  -0.13518   0.00000
   5        2PZ         0.99149   0.08441  -0.02148   0.00000   0.17985
   6        3S         -0.00031   0.24043   0.68786   0.00000  -0.18317
   7        3PX         0.00000   0.00000   0.00000   0.00000   0.00000
   8        3PY         0.00000   0.00000   0.00000   0.34386   0.00000
   9        3PZ         0.03127  -0.15694   0.05114   0.00000  -0.45934
  10        4S         -0.00281   0.01297   0.26930   0.00000  -0.30335
  11        4PX         0.00000   0.00000   0.00000   0.00000   0.00000
  12        4PY         0.00000   0.00000   0.00000   0.13615   0.00000
  13        4PZ        -0.00641   0.02273   0.04182   0.00000  -0.06181
  14        5XX         0.00036  -0.03120  -0.01188   0.00000  -0.03283
  15        5YY         0.00051  -0.03169  -0.00240   0.00000  -0.04218
  16        5ZZ        -0.00342   0.05259  -0.02193   0.00000   0.06998
  17        5XY         0.00000   0.00000   0.00000   0.00000   0.00000
  18        5XZ         0.00000   0.00000   0.00000   0.00000   0.00000
  19        5YZ         0.00000   0.00000   0.00000  -0.05903   0.00000
  20 2   O  1S          0.00076  -0.20770   0.09701   0.00000   0.03942
  21        2S         -0.00154   0.47270  -0.21470   0.00000  -0.07392
  22        2PX         0.00000   0.00000   0.00000   0.00000   0.00000
  23        2PY         0.00000   0.00000   0.00000   0.55637   0.00000
  24        2PZ        -0.00174   0.13669   0.25683   0.00000   0.50184
  25        3S          0.00620   0.40938  -0.35875   0.00000  -0.20094
  26        3PX         0.00000   0.00000   0.00000   0.00000   0.00000
  27        3PY         0.00000   0.00000   0.00000   0.35466   0.00000
  28        3PZ         0.00523   0.03669   0.11691   0.00000   0.26957
  29        4XX        -0.00005  -0.00240   0.00327   0.00000  -0.00021
  30        4YY        -0.00004  -0.00260   0.00144   0.00000  -0.00123
  31        4ZZ        -0.00122   0.01752   0.02556   0.00000   0.02761
  32        4XY         0.00000   0.00000   0.00000   0.00000   0.00000
  33        4XZ         0.00000   0.00000   0.00000   0.00000   0.00000
  34        4YZ         0.00000   0.00000   0.00000   0.03121   0.00000
                          11        12        13        14        15
                           O         O         V         V         V
     Eigenvalues --    -0.38498  -0.19541  -0.12358   0.02930   0.22050
   1 1   P  1S          0.00000   0.00000   0.00000  -0.01158  -0.06873
   2        2S          0.00000   0.00000   0.00000   0.07364   0.08838
   3        2PX        -0.13889   0.00000  -0.21236   0.00000   0.00000
   4        2PY         0.00000  -0.22304   0.00000   0.00000   0.00000
   5        2PZ         0.00000   0.00000   0.00000  -0.11411   0.09093
   6        3S          0.00000   0.00000   0.00000  -0.05574  -1.63345
   7        3PX         0.35104   0.00000   0.58936   0.00000   0.00000
   8        3PY         0.00000   0.63155   0.00000   0.00000   0.00000
   9        3PZ         0.00000   0.00000   0.00000   0.35405  -0.42808
  10        4S          0.00000   0.00000   0.00000  -0.71529   1.84315
  11        4PX         0.14856   0.00000   0.47245   0.00000   0.00000
  12        4PY         0.00000   0.43470   0.00000   0.00000   0.00000
  13        4PZ         0.00000   0.00000   0.00000   1.07961   0.27907
  14        5XX         0.00000   0.00000   0.00000  -0.09073  -0.00942
  15        5YY         0.00000   0.00000   0.00000  -0.09266  -0.01299
  16        5ZZ         0.00000   0.00000   0.00000   0.16354   0.04349
  17        5XY         0.00000   0.00000   0.00000   0.00000   0.00000
  18        5XZ        -0.06820   0.00000   0.07332   0.00000   0.00000
  19        5YZ         0.00000   0.07607   0.00000   0.00000   0.00000
  20 2   O  1S          0.00000   0.00000   0.00000  -0.08302   0.01376
  21        2S          0.00000   0.00000   0.00000   0.08588   0.01202
  22        2PX         0.53297   0.00000  -0.37970   0.00000   0.00000
  23        2PY         0.00000  -0.37621   0.00000   0.00000   0.00000
  24        2PZ         0.00000   0.00000   0.00000   0.22507   0.10997
  25        3S          0.00000   0.00000   0.00000   1.02686  -0.32566
  26        3PX         0.36022   0.00000  -0.36492   0.00000   0.00000
  27        3PY         0.00000  -0.34332   0.00000   0.00000   0.00000
  28        3PZ         0.00000   0.00000   0.00000   0.33231  -0.06828
  29        4XX         0.00000   0.00000   0.00000  -0.05514   0.02540
  30        4YY         0.00000   0.00000   0.00000  -0.05349   0.02437
  31        4ZZ         0.00000   0.00000   0.00000  -0.03692  -0.01602
  32        4XY         0.00000   0.00000   0.00000   0.00000   0.00000
  33        4XZ         0.03456   0.00000  -0.00865   0.00000   0.00000
  34        4YZ         0.00000  -0.00799   0.00000   0.00000   0.00000
                          16        17        18        19        20
                           V         V         V         V         V
     Eigenvalues --     0.28054   0.28264   0.39957   0.61707   0.61972
   1 1   P  1S          0.00000   0.00000  -0.02660   0.00000  -0.00092
   2        2S          0.00000   0.00000   0.04070   0.00000   0.00355
   3        2PX         0.00000   0.28283   0.00000   0.00000   0.00000
   4        2PY         0.27574   0.00000   0.00000   0.00000   0.00000
   5        2PZ         0.00000   0.00000  -0.28932   0.00000  -0.00004
   6        3S          0.00000   0.00000  -0.62318   0.00000  -0.01513
   7        3PX         0.00000  -1.21705   0.00000   0.00000   0.00000
   8        3PY        -1.19886   0.00000   0.00000   0.00000   0.00000
   9        3PZ         0.00000   0.00000   1.23964   0.00000   0.00078
  10        4S          0.00000   0.00000   0.56332   0.00000   0.00263
  11        4PX         0.00000   1.28640   0.00000   0.00000   0.00000
  12        4PY         1.30235   0.00000   0.00000   0.00000   0.00000
  13        4PZ         0.00000   0.00000  -1.19208   0.00000  -0.00131
  14        5XX         0.00000   0.00000  -0.13932   0.00000  -0.85456
  15        5YY         0.00000   0.00000  -0.13772   0.00000   0.86755
  16        5ZZ         0.00000   0.00000   0.31325   0.00000  -0.00722
  17        5XY         0.00000   0.00000   0.00000   0.99439   0.00000
  18        5XZ         0.00000   0.03524   0.00000   0.00000   0.00000
  19        5YZ         0.02668   0.00000   0.00000   0.00000   0.00000
  20 2   O  1S          0.00000   0.00000  -0.00066   0.00000  -0.00056
  21        2S          0.00000   0.00000   0.09445   0.00000   0.01298
  22        2PX         0.00000   0.01455   0.00000   0.00000   0.00000
  23        2PY         0.00543   0.00000   0.00000   0.00000   0.00000
  24        2PZ         0.00000   0.00000   0.35551   0.00000   0.00496
  25        3S          0.00000   0.00000  -0.39333   0.00000  -0.01493
  26        3PX         0.00000  -0.06272   0.00000   0.00000   0.00000
  27        3PY        -0.07629   0.00000   0.00000   0.00000   0.00000
  28        3PZ         0.00000   0.00000   0.19663   0.00000   0.00341
  29        4XX         0.00000   0.00000   0.04452   0.00000  -0.04694
  30        4YY         0.00000   0.00000   0.04417   0.00000   0.05343
  31        4ZZ         0.00000   0.00000  -0.03327   0.00000   0.00410
  32        4XY         0.00000   0.00000   0.00000   0.05767   0.00000
  33        4XZ         0.00000  -0.03207   0.00000   0.00000   0.00000
  34        4YZ        -0.03040   0.00000   0.00000   0.00000   0.00000
                          21        22        23        24        25
                           V         V         V         V         V
     Eigenvalues --     0.65422   0.66025   0.80803   0.96756   0.97061
   1 1   P  1S          0.00000   0.00000  -0.01804   0.00000   0.00000
   2        2S          0.00000   0.00000  -0.02499   0.00000   0.00000
   3        2PX         0.00000  -0.01078   0.00000   0.00000  -0.00379
   4        2PY        -0.00545   0.00000   0.00000  -0.00157   0.00000
   5        2PZ         0.00000   0.00000  -0.12363   0.00000   0.00000
   6        3S          0.00000   0.00000  -0.52162   0.00000   0.00000
   7        3PX         0.00000   0.07135   0.00000   0.00000  -0.01595
   8        3PY         0.05293   0.00000   0.00000  -0.02405   0.00000
   9        3PZ         0.00000   0.00000   0.82859   0.00000   0.00000
  10        4S          0.00000   0.00000   0.01816   0.00000   0.00000
  11        4PX         0.00000  -0.08135   0.00000   0.00000  -0.34710
  12        4PY        -0.06822   0.00000   0.00000  -0.34487   0.00000
  13        4PZ         0.00000   0.00000  -0.21445   0.00000   0.00000
  14        5XX         0.00000   0.00000   0.24068   0.00000   0.00000
  15        5YY         0.00000   0.00000   0.22673   0.00000   0.00000
  16        5ZZ         0.00000   0.00000  -0.69868   0.00000   0.00000
  17        5XY         0.00000   0.00000   0.00000   0.00000   0.00000
  18        5XZ         0.00000   0.90123   0.00000   0.00000   0.40281
  19        5YZ         0.89885   0.00000   0.00000   0.41103   0.00000
  20 2   O  1S          0.00000   0.00000  -0.03919   0.00000   0.00000
  21        2S          0.00000   0.00000   0.64020   0.00000   0.00000
  22        2PX         0.00000   0.42934   0.00000   0.00000  -0.86250
  23        2PY         0.42916   0.00000   0.00000  -0.84945   0.00000
  24        2PZ         0.00000   0.00000  -0.39355   0.00000   0.00000
  25        3S          0.00000   0.00000  -0.45025   0.00000   0.00000
  26        3PX         0.00000  -0.11574   0.00000   0.00000   1.20401
  27        3PY        -0.13467   0.00000   0.00000   1.20888   0.00000
  28        3PZ         0.00000   0.00000   1.33331   0.00000   0.00000
  29        4XX         0.00000   0.00000   0.20394   0.00000   0.00000
  30        4YY         0.00000   0.00000   0.20357   0.00000   0.00000
  31        4ZZ         0.00000   0.00000   0.18806   0.00000   0.00000
  32        4XY         0.00000   0.00000   0.00000   0.00000   0.00000
  33        4XZ         0.00000  -0.10315   0.00000   0.00000  -0.11294
  34        4YZ        -0.10162   0.00000   0.00000  -0.11406   0.00000
                          26        27        28        29        30
                           V         V         V         V         V
     Eigenvalues --     1.11535   1.19451   1.77683   1.77736   2.00411
   1 1   P  1S         -0.00947  -0.00884   0.00000  -0.00014   0.00000
   2        2S          0.10380  -0.03090   0.00000   0.00104   0.00000
   3        2PX         0.00000   0.00000   0.00000   0.00000   0.06059
   4        2PY         0.00000   0.00000   0.00000   0.00000   0.00000
   5        2PZ        -0.08395  -0.06263   0.00000  -0.00025   0.00000
   6        3S         -0.00342  -0.35733   0.00000  -0.00189   0.00000
   7        3PX         0.00000   0.00000   0.00000   0.00000  -0.28582
   8        3PY         0.00000   0.00000   0.00000   0.00000   0.00000
   9        3PZ         0.13962   0.75851   0.00000  -0.00104   0.00000
  10        4S         -0.18934  -1.17082   0.00000   0.00500   0.00000
  11        4PX         0.00000   0.00000   0.00000   0.00000  -0.02049
  12        4PY         0.00000   0.00000   0.00000   0.00000   0.00000
  13        4PZ         0.14160   0.83226   0.00000  -0.00414   0.00000
  14        5XX         0.49894   0.19467   0.00000  -0.10823   0.00000
  15        5YY         0.48600   0.20163   0.00000   0.11069   0.00000
  16        5ZZ        -0.75739  -0.50273   0.00000   0.00062   0.00000
  17        5XY         0.00000   0.00000  -0.12615   0.00000   0.00000
  18        5XZ         0.00000   0.00000   0.00000   0.00000   0.50106
  19        5YZ         0.00000   0.00000   0.00000   0.00000   0.00000
  20 2   O  1S         -0.03176  -0.09891   0.00000   0.00099   0.00000
  21        2S          0.26774  -1.54737   0.00000   0.00856   0.00000
  22        2PX         0.00000   0.00000   0.00000   0.00000  -0.10997
  23        2PY         0.00000   0.00000   0.00000   0.00000   0.00000
  24        2PZ         0.85559  -0.13268   0.00000   0.00205   0.00000
  25        3S          0.08739   4.01975   0.00000  -0.02373   0.00000
  26        3PX         0.00000   0.00000   0.00000   0.00000   0.29967
  27        3PY         0.00000   0.00000   0.00000   0.00000   0.00000
  28        3PZ        -0.57973   1.23769   0.00000  -0.00599   0.00000
  29        4XX         0.03917  -0.35779   0.00000   0.87003   0.00000
  30        4YY         0.04178  -0.36778   0.00000  -0.86316   0.00000
  31        4ZZ         0.02077  -0.65813   0.00000   0.00825   0.00000
  32        4XY         0.00000   0.00000   1.00070   0.00000   0.00000
  33        4XZ         0.00000   0.00000   0.00000   0.00000   1.06444
  34        4YZ         0.00000   0.00000   0.00000   0.00000   0.00000
                          31        32        33        34
                           V         V         V         V
     Eigenvalues --     2.00628   2.71141   3.39788   3.53600
   1 1   P  1S          0.00000  -0.04122   0.16120   0.04065
   2        2S          0.00000  -0.00619  -0.65482  -0.22292
   3        2PX         0.00000   0.00000   0.00000   0.00000
   4        2PY         0.06013   0.00000   0.00000   0.00000
   5        2PZ         0.00000  -0.18617  -0.05471   0.00111
   6        3S          0.00000  -1.45827   6.87071   1.51462
   7        3PX         0.00000   0.00000   0.00000   0.00000
   8        3PY        -0.28483   0.00000   0.00000   0.00000
   9        3PZ         0.00000   1.79014   0.38346   0.26536
  10        4S          0.00000  -0.41386  -0.45663  -0.77195
  11        4PX         0.00000   0.00000   0.00000   0.00000
  12        4PY        -0.02053   0.00000   0.00000   0.00000
  13        4PZ         0.00000   0.07325  -0.12730   0.48197
  14        5XX         0.00000   0.45542  -2.84440  -0.68954
  15        5YY         0.00000   0.45470  -2.84349  -0.68870
  16        5ZZ         0.00000  -0.91106  -3.20233  -0.76488
  17        5XY         0.00000   0.00000   0.00000   0.00000
  18        5XZ         0.00000   0.00000   0.00000   0.00000
  19        5YZ         0.49995   0.00000   0.00000   0.00000
  20 2   O  1S          0.00000  -0.06203   0.09273  -0.46868
  21        2S          0.00000  -0.81523  -0.17631   0.16046
  22        2PX         0.00000   0.00000   0.00000   0.00000
  23        2PY        -0.10912   0.00000   0.00000   0.00000
  24        2PZ         0.00000  -0.03036   0.16730  -0.10033
  25        3S          0.00000   2.56580  -0.47345   3.87428
  26        3PX         0.00000   0.00000   0.00000   0.00000
  27        3PY         0.30116   0.00000   0.00000   0.00000
  28        3PZ         0.00000   1.73992   0.23141   0.58643
  29        4XX         0.00000  -0.76874   0.26114  -1.62467
  30        4YY         0.00000  -0.76582   0.26143  -1.62729
  31        4ZZ         0.00000   1.29842   0.64743  -1.32104
  32        4XY         0.00000   0.00000   0.00000   0.00000
  33        4XZ         0.00000   0.00000   0.00000   0.00000
  34        4YZ         1.06462   0.00000   0.00000   0.00000
     Beta Molecular Orbital Coefficients:
                           1         2         3         4         5
                           O         O         O         O         O
     Eigenvalues --   -77.14991 -19.18230  -6.61786  -4.78369  -4.77841
   1 1   P  1S          0.99627   0.00001  -0.27419   0.00000  -0.00141
   2        2S          0.01415  -0.00010   1.02349   0.00000   0.00518
   3        2PX         0.00000   0.00000   0.00000   0.99210   0.00000
   4        2PY         0.00000   0.00000   0.00000   0.00000   0.00000
   5        2PZ        -0.00008   0.00000  -0.00457   0.00000   0.99153
   6        3S         -0.02660   0.00061   0.07699   0.00000  -0.00061
   7        3PX         0.00000   0.00000   0.00000   0.02771   0.00000
   8        3PY         0.00000   0.00000   0.00000   0.00000   0.00000
   9        3PZ         0.00022  -0.00026  -0.00224   0.00000   0.03114
  10        4S          0.00349  -0.00128  -0.01332   0.00000  -0.00274
  11        4PX         0.00000   0.00000   0.00000  -0.00775   0.00000
  12        4PY         0.00000   0.00000   0.00000   0.00000   0.00000
  13        4PZ         0.00006   0.00106  -0.00027   0.00000  -0.00643
  14        5XX         0.00936  -0.00020  -0.01909   0.00000   0.00048
  15        5YY         0.00936  -0.00019  -0.02005   0.00000   0.00034
  16        5ZZ         0.00925  -0.00002  -0.01795   0.00000  -0.00330
  17        5XY         0.00000   0.00000   0.00000   0.00000   0.00000
  18        5XZ         0.00000   0.00000   0.00000  -0.00048   0.00000
  19        5YZ         0.00000   0.00000   0.00000   0.00000   0.00000
  20 2   O  1S          0.00003   0.99295  -0.00028   0.00000   0.00075
  21        2S          0.00002   0.02588   0.00038   0.00000  -0.00152
  22        2PX         0.00000   0.00000   0.00000   0.00005   0.00000
  23        2PY         0.00000   0.00000   0.00000   0.00000   0.00000
  24        2PZ        -0.00017   0.00085   0.00078   0.00000  -0.00176
  25        3S          0.00019   0.00989  -0.00229   0.00000   0.00618
  26        3PX         0.00000   0.00000   0.00000  -0.00045   0.00000
  27        3PY         0.00000   0.00000   0.00000   0.00000   0.00000
  28        3PZ         0.00042   0.00005  -0.00285   0.00000   0.00519
  29        4XX         0.00011  -0.00761  -0.00014   0.00000  -0.00007
  30        4YY         0.00011  -0.00769  -0.00011   0.00000  -0.00004
  31        4ZZ        -0.00008  -0.00762   0.00041   0.00000  -0.00130
  32        4XY         0.00000   0.00000   0.00000   0.00000   0.00000
  33        4XZ         0.00000   0.00000   0.00000  -0.00043   0.00000
  34        4YZ         0.00000   0.00000   0.00000   0.00000   0.00000
                           6         7         8         9        10
                           O         O         O         O         O
     Eigenvalues --    -4.77105  -1.00256  -0.53117  -0.37845  -0.37188
   1 1   P  1S          0.00000   0.02850   0.06533   0.00000  -0.02476
   2        2S          0.00000  -0.13140  -0.29471   0.00000   0.12049
   3        2PX         0.00000   0.00000   0.00000  -0.13713   0.00000
   4        2PY         0.99244   0.00000   0.00000   0.00000   0.00000
   5        2PZ         0.00000   0.08671  -0.01231   0.00000   0.18105
   6        3S          0.00000   0.24223   0.67649   0.00000  -0.22905
   7        3PX         0.00000   0.00000   0.00000   0.34503   0.00000
   8        3PY         0.02653   0.00000   0.00000   0.00000   0.00000
   9        3PZ         0.00000  -0.16116   0.02784   0.00000  -0.46283
  10        4S          0.00000   0.01320   0.24752   0.00000  -0.32128
  11        4PX         0.00000   0.00000   0.00000   0.14826   0.00000
  12        4PY        -0.00734   0.00000   0.00000   0.00000   0.00000
  13        4PZ         0.00000   0.02235   0.05092   0.00000  -0.07373
  14        5XX         0.00000  -0.03065  -0.00513   0.00000  -0.03897
  15        5YY         0.00000  -0.03751  -0.03513   0.00000  -0.01777
  16        5ZZ         0.00000   0.05493  -0.00900   0.00000   0.06509
  17        5XY         0.00000   0.00000   0.00000   0.00000   0.00000
  18        5XZ         0.00000   0.00000   0.00000  -0.07020   0.00000
  19        5YZ        -0.00062   0.00000   0.00000   0.00000   0.00000
  20 2   O  1S          0.00000  -0.20597   0.09937   0.00000   0.03588
  21        2S          0.00000   0.46209  -0.22207   0.00000  -0.06091
  22        2PX         0.00000   0.00000   0.00000   0.53090   0.00000
  23        2PY         0.00006   0.00000   0.00000   0.00000   0.00000
  24        2PZ         0.00000   0.14065   0.28700   0.00000   0.48010
  25        3S          0.00000   0.41411  -0.36070   0.00000  -0.19562
  26        3PX         0.00000   0.00000   0.00000   0.36581   0.00000
  27        3PY        -0.00041   0.00000   0.00000   0.00000   0.00000
  28        3PZ         0.00000   0.04121   0.13853   0.00000   0.26159
  29        4XX         0.00000  -0.00075  -0.00061   0.00000   0.00063
  30        4YY         0.00000  -0.00869   0.00355   0.00000   0.00275
  31        4ZZ         0.00000   0.02039   0.02249   0.00000   0.02837
  32        4XY         0.00000   0.00000   0.00000   0.00000   0.00000
  33        4XZ         0.00000   0.00000   0.00000   0.03546   0.00000
  34        4YZ        -0.00036   0.00000   0.00000   0.00000   0.00000
                          11        12        13        14        15
                           O         V         V         V         V
     Eigenvalues --    -0.35342  -0.11310  -0.08160   0.03909   0.23118
   1 1   P  1S          0.00000   0.00000   0.00000  -0.01240  -0.06899
   2        2S          0.00000   0.00000   0.00000   0.07930   0.08998
   3        2PX         0.00000  -0.21117   0.00000   0.00000   0.00000
   4        2PY        -0.13100   0.00000  -0.20628   0.00000   0.00000
   5        2PZ         0.00000   0.00000   0.00000  -0.10749   0.09346
   6        3S          0.00000   0.00000   0.00000  -0.06052  -1.63733
   7        3PX         0.00000   0.58345   0.00000   0.00000   0.00000
   8        3PY         0.32528   0.00000   0.56110   0.00000   0.00000
   9        3PZ         0.00000   0.00000   0.00000   0.32907  -0.43534
  10        4S          0.00000   0.00000   0.00000  -0.73444   1.82748
  11        4PX         0.00000   0.48170   0.00000   0.00000   0.00000
  12        4PY         0.14925   0.00000   0.51429   0.00000   0.00000
  13        4PZ         0.00000   0.00000   0.00000   1.09602   0.29712
  14        5XX         0.00000   0.00000   0.00000  -0.09862  -0.01889
  15        5YY         0.00000   0.00000   0.00000  -0.07319   0.00917
  16        5ZZ         0.00000   0.00000   0.00000   0.15957   0.03447
  17        5XY         0.00000   0.00000   0.00000   0.00000   0.00000
  18        5XZ         0.00000   0.07247   0.00000   0.00000   0.00000
  19        5YZ        -0.07273   0.00000   0.06734   0.00000   0.00000
  20 2   O  1S          0.00000   0.00000   0.00000  -0.08435   0.01271
  21        2S          0.00000   0.00000   0.00000   0.09100   0.00747
  22        2PX         0.00000  -0.37578   0.00000   0.00000   0.00000
  23        2PY         0.53225   0.00000  -0.36518   0.00000   0.00000
  24        2PZ         0.00000   0.00000   0.00000   0.22132   0.10854
  25        3S          0.00000   0.00000   0.00000   1.03187  -0.30056
  26        3PX         0.00000  -0.36528   0.00000   0.00000   0.00000
  27        3PY         0.37634   0.00000  -0.36432   0.00000   0.00000
  28        3PZ         0.00000   0.00000   0.00000   0.32829  -0.06063
  29        4XX         0.00000   0.00000   0.00000  -0.05306   0.02212
  30        4YY         0.00000   0.00000   0.00000  -0.05365   0.02225
  31        4ZZ         0.00000   0.00000   0.00000  -0.03466  -0.01740
  32        4XY         0.00000   0.00000   0.00000   0.00000   0.00000
  33        4XZ         0.00000  -0.00811   0.00000   0.00000   0.00000
  34        4YZ         0.03628   0.00000  -0.00692   0.00000   0.00000
                          16        17        18        19        20
                           V         V         V         V         V
     Eigenvalues --     0.28614   0.30571   0.40558   0.65574   0.65592
   1 1   P  1S          0.00000   0.00000  -0.02801   0.00000  -0.00469
   2        2S          0.00000   0.00000   0.04474   0.00000   0.01295
   3        2PX         0.28437   0.00000   0.00000   0.00000   0.00000
   4        2PY         0.00000   0.28942   0.00000   0.00000   0.00000
   5        2PZ         0.00000   0.00000  -0.28983   0.00000  -0.01250
   6        3S          0.00000   0.00000  -0.65017   0.00000  -0.09613
   7        3PX        -1.22119   0.00000   0.00000   0.00000   0.00000
   8        3PY         0.00000  -1.23606   0.00000   0.00000   0.00000
   9        3PZ         0.00000   0.00000   1.24193   0.00000   0.06223
  10        4S          0.00000   0.00000   0.56725   0.00000   0.01879
  11        4PX         1.28260   0.00000   0.00000   0.00000   0.00000
  12        4PY         0.00000   1.26937   0.00000   0.00000   0.00000
  13        4PZ         0.00000   0.00000  -1.17106   0.00000  -0.01375
  14        5XX         0.00000   0.00000  -0.15993   0.00000   0.88182
  15        5YY         0.00000   0.00000  -0.11455   0.00000  -0.83649
  16        5ZZ         0.00000   0.00000   0.31418   0.00000  -0.02754
  17        5XY         0.00000   0.00000   0.00000   0.99389   0.00000
  18        5XZ         0.03721   0.00000   0.00000   0.00000   0.00000
  19        5YZ         0.00000   0.04113   0.00000   0.00000   0.00000
  20 2   O  1S          0.00000   0.00000  -0.00268   0.00000  -0.00387
  21        2S          0.00000   0.00000   0.09790   0.00000   0.02990
  22        2PX         0.01586   0.00000   0.00000   0.00000   0.00000
  23        2PY         0.00000   0.02100   0.00000   0.00000   0.00000
  24        2PZ         0.00000   0.00000   0.36032   0.00000   0.01868
  25        3S          0.00000   0.00000  -0.37487   0.00000   0.00069
  26        3PX        -0.06033   0.00000   0.00000   0.00000   0.00000
  27        3PY         0.00000  -0.05419   0.00000   0.00000   0.00000
  28        3PZ         0.00000   0.00000   0.20687   0.00000   0.05163
  29        4XX         0.00000   0.00000   0.04369   0.00000   0.06170
  30        4YY         0.00000   0.00000   0.04307   0.00000  -0.04523
  31        4ZZ         0.00000   0.00000  -0.03445   0.00000   0.00431
  32        4XY         0.00000   0.00000   0.00000   0.06160   0.00000
  33        4XZ        -0.03271   0.00000   0.00000   0.00000   0.00000
  34        4YZ         0.00000  -0.03423   0.00000   0.00000   0.00000
                          21        22        23        24        25
                           V         V         V         V         V
     Eigenvalues --     0.66391   0.69159   0.81501   0.97396   0.99122
   1 1   P  1S          0.00000   0.00000  -0.01704   0.00000   0.00000
   2        2S          0.00000   0.00000  -0.02988   0.00000   0.00000
   3        2PX        -0.01198   0.00000   0.00000  -0.00400   0.00000
   4        2PY         0.00000  -0.01481   0.00000   0.00000  -0.00479
   5        2PZ         0.00000   0.00000  -0.12268   0.00000   0.00000
   6        3S          0.00000   0.00000  -0.50491   0.00000   0.00000
   7        3PX         0.07560   0.00000   0.00000  -0.01494   0.00000
   8        3PY         0.00000   0.08638   0.00000   0.00000  -0.01157
   9        3PZ         0.00000   0.00000   0.83159   0.00000   0.00000
  10        4S          0.00000   0.00000   0.00720   0.00000   0.00000
  11        4PX        -0.08461   0.00000   0.00000  -0.34779   0.00000
  12        4PY         0.00000  -0.08777   0.00000   0.00000  -0.34847
  13        4PZ         0.00000   0.00000  -0.20863   0.00000   0.00000
  14        5XX         0.00000   0.00000   0.19335   0.00000   0.00000
  15        5YY         0.00000   0.00000   0.25878   0.00000   0.00000
  16        5ZZ         0.00000   0.00000  -0.69752   0.00000   0.00000
  17        5XY         0.00000   0.00000   0.00000   0.00000   0.00000
  18        5XZ         0.90188   0.00000   0.00000   0.40024   0.00000
  19        5YZ         0.00000   0.89938   0.00000   0.00000   0.40199
  20 2   O  1S          0.00000   0.00000  -0.03983   0.00000   0.00000
  21        2S          0.00000   0.00000   0.62608   0.00000   0.00000
  22        2PX         0.42845   0.00000   0.00000  -0.86590   0.00000
  23        2PY         0.00000   0.43136   0.00000   0.00000  -0.86796
  24        2PZ         0.00000   0.00000  -0.40974   0.00000   0.00000
  25        3S          0.00000   0.00000  -0.42115   0.00000   0.00000
  26        3PX        -0.11083   0.00000   0.00000   1.20285   0.00000
  27        3PY         0.00000  -0.11420   0.00000   0.00000   1.19946
  28        3PZ         0.00000   0.00000   1.34873   0.00000   0.00000
  29        4XX         0.00000   0.00000   0.20110   0.00000   0.00000
  30        4YY         0.00000   0.00000   0.19956   0.00000   0.00000
  31        4ZZ         0.00000   0.00000   0.18718   0.00000   0.00000
  32        4XY         0.00000   0.00000   0.00000   0.00000   0.00000
  33        4XZ        -0.10395   0.00000   0.00000  -0.11273   0.00000
  34        4YZ         0.00000  -0.10619   0.00000   0.00000  -0.11495
                          26        27        28        29        30
                           V         V         V         V         V
     Eigenvalues --     1.12731   1.19854   1.79319   1.79324   2.00673
   1 1   P  1S         -0.00832  -0.00851   0.00000   0.00067   0.00000
   2        2S          0.09855  -0.03055   0.00000  -0.00027   0.00000
   3        2PX         0.00000   0.00000   0.00000   0.00000   0.06083
   4        2PY         0.00000   0.00000   0.00000   0.00000   0.00000
   5        2PZ        -0.08523  -0.06246   0.00000   0.00242   0.00000
   6        3S          0.02008  -0.34635   0.00000   0.02154   0.00000
   7        3PX         0.00000   0.00000   0.00000   0.00000  -0.28657
   8        3PY         0.00000   0.00000   0.00000   0.00000   0.00000
   9        3PZ         0.14697   0.75518   0.00000  -0.02324   0.00000
  10        4S         -0.18764  -1.18173   0.00000   0.01164   0.00000
  11        4PX         0.00000   0.00000   0.00000   0.00000  -0.02050
  12        4PY         0.00000   0.00000   0.00000   0.00000   0.00000
  13        4PZ         0.13345   0.83601   0.00000  -0.00640   0.00000
  14        5XX         0.46909   0.19498   0.00000  -0.11844   0.00000
  15        5YY         0.50937   0.20200   0.00000   0.10679   0.00000
  16        5ZZ        -0.77115  -0.50275   0.00000   0.00997   0.00000
  17        5XY         0.00000   0.00000  -0.13006   0.00000   0.00000
  18        5XZ         0.00000   0.00000   0.00000   0.00000   0.50167
  19        5YZ         0.00000   0.00000   0.00000   0.00000   0.00000
  20 2   O  1S         -0.03180  -0.09952   0.00000   0.00396   0.00000
  21        2S          0.28344  -1.55056   0.00000   0.01113   0.00000
  22        2PX         0.00000   0.00000   0.00000   0.00000  -0.11004
  23        2PY         0.00000   0.00000   0.00000   0.00000   0.00000
  24        2PZ         0.85014  -0.12716   0.00000   0.00265   0.00000
  25        3S          0.06108   4.03166   0.00000  -0.06014   0.00000
  26        3PX         0.00000   0.00000   0.00000   0.00000   0.29947
  27        3PY         0.00000   0.00000   0.00000   0.00000   0.00000
  28        3PZ        -0.56843   1.22796   0.00000  -0.02754   0.00000
  29        4XX         0.04346  -0.36111   0.00000   0.87869   0.00000
  30        4YY         0.04651  -0.37282   0.00000  -0.85402   0.00000
  31        4ZZ         0.02664  -0.66160   0.00000  -0.00105   0.00000
  32        4XY         0.00000   0.00000   1.00047   0.00000   0.00000
  33        4XZ         0.00000   0.00000   0.00000   0.00000   1.06434
  34        4YZ         0.00000   0.00000   0.00000   0.00000   0.00000
                          31        32        33        34
                           V         V         V         V
     Eigenvalues --     2.02611   2.71977   3.40863   3.54758
   1 1   P  1S          0.00000  -0.04078   0.16133   0.03993
   2        2S          0.00000  -0.00768  -0.65549  -0.21952
   3        2PX         0.00000   0.00000   0.00000   0.00000
   4        2PY         0.06113   0.00000   0.00000   0.00000
   5        2PZ         0.00000  -0.18633  -0.05416   0.00188
   6        3S          0.00000  -1.44328   6.87780   1.48432
   7        3PX         0.00000   0.00000   0.00000   0.00000
   8        3PY        -0.28777   0.00000   0.00000   0.00000
   9        3PZ         0.00000   1.79031   0.38146   0.25938
  10        4S          0.00000  -0.41673  -0.45942  -0.76887
  11        4PX         0.00000   0.00000   0.00000   0.00000
  12        4PY        -0.02087   0.00000   0.00000   0.00000
  13        4PZ         0.00000   0.07403  -0.12480   0.48187
  14        5XX         0.00000   0.44866  -2.84714  -0.67634
  15        5YY         0.00000   0.45156  -2.85098  -0.67694
  16        5ZZ         0.00000  -0.91601  -3.20231  -0.74706
  17        5XY         0.00000   0.00000   0.00000   0.00000
  18        5XZ         0.00000   0.00000   0.00000   0.00000
  19        5YZ         0.50479   0.00000   0.00000   0.00000
  20 2   O  1S          0.00000  -0.06192   0.09057  -0.46895
  21        2S          0.00000  -0.81763  -0.17592   0.16589
  22        2PX         0.00000   0.00000   0.00000   0.00000
  23        2PY        -0.11071   0.00000   0.00000   0.00000
  24        2PZ         0.00000  -0.02922   0.16635  -0.10112
  25        3S          0.00000   2.56979  -0.45669   3.86678
  26        3PX         0.00000   0.00000   0.00000   0.00000
  27        3PY         0.30108   0.00000   0.00000   0.00000
  28        3PZ         0.00000   1.73859   0.23203   0.58168
  29        4XX         0.00000  -0.76332   0.25335  -1.62296
  30        4YY         0.00000  -0.77596   0.25488  -1.62785
  31        4ZZ         0.00000   1.29706   0.63884  -1.32487
  32        4XY         0.00000   0.00000   0.00000   0.00000
  33        4XZ         0.00000   0.00000   0.00000   0.00000
  34        4YZ         1.06381   0.00000   0.00000   0.00000
     Alpha Density Matrix:
                           1         2         3         4         5
   1 1   P  1S          1.07346
   2        2S         -0.29264   1.16662
   3        2PX         0.00000   0.00000   1.00350
   4        2PY         0.00000   0.00000   0.00000   1.05272
   5        2PZ        -0.00295   0.01405   0.00000   0.00000   1.02301
   6        3S          0.00929  -0.18042   0.00000   0.00000  -0.02808
   7        3PX         0.00000   0.00000  -0.02117   0.00000   0.00000
   8        3PY         0.00000   0.00000   0.00000  -0.16064   0.00000
   9        3PZ         0.00921  -0.04348   0.00000   0.00000  -0.06594
  10        4S          0.03186  -0.12757   0.00000   0.00000  -0.06198
  11        4PX         0.00000   0.00000  -0.02830   0.00000   0.00000
  12        4PY         0.00000   0.00000   0.00000  -0.12263   0.00000
  13        4PZ         0.00488  -0.02219   0.00000   0.00000  -0.01645
  14        5XX         0.01354  -0.01489   0.00000   0.00000  -0.00784
  15        5YY         0.01441  -0.01885   0.00000   0.00000  -0.00961
  16        5ZZ         0.01273  -0.01131   0.00000   0.00000   0.01418
  17        5XY         0.00000   0.00000   0.00000   0.00000   0.00000
  18        5XZ         0.00000   0.00000   0.00902   0.00000   0.00000
  19        5YZ         0.00000   0.00000   0.00000  -0.00933   0.00000
  20 2   O  1S         -0.00004   0.00119   0.00000   0.00000  -0.01176
  21        2S          0.00037  -0.00343   0.00000   0.00000   0.02969
  22        2PX         0.00000   0.00000  -0.07398   0.00000   0.00000
  23        2PY         0.00000   0.00000   0.00000   0.00881   0.00000
  24        2PZ         0.01039  -0.04399   0.00000   0.00000   0.09455
  25        3S         -0.00761   0.03296   0.00000   0.00000   0.01228
  26        3PX         0.00000   0.00000  -0.05050   0.00000   0.00000
  27        3PY         0.00000   0.00000   0.00000   0.02820   0.00000
  28        3PZ         0.00451  -0.01573   0.00000   0.00000   0.05426
  29        4XX         0.00030  -0.00082   0.00000   0.00000  -0.00036
  30        4YY         0.00020  -0.00035   0.00000   0.00000  -0.00051
  31        4ZZ         0.00143  -0.00675   0.00000   0.00000   0.00468
  32        4XY         0.00000   0.00000   0.00000   0.00000   0.00000
  33        4XZ         0.00000   0.00000  -0.00524   0.00000   0.00000
  34        4YZ         0.00000   0.00000   0.00000  -0.00280   0.00000
                           6         7         8         9        10
   6        3S          0.57105
   7        3PX         0.00000   0.12400
   8        3PY         0.00000   0.00000   0.51782
   9        3PZ         0.08141   0.00000   0.00000   0.23922
  10        4S          0.24281   0.00000   0.00000   0.15102   0.16491
  11        4PX         0.00000   0.05194   0.00000   0.00000   0.00000
  12        4PY         0.00000   0.00000   0.32116   0.00000   0.00000
  13        4PZ         0.04553   0.00000   0.00000   0.02676   0.03033
  14        5XX        -0.01136   0.00000   0.00000   0.01942   0.00664
  15        5YY        -0.00325   0.00000   0.00000   0.02428   0.01202
  16        5ZZ        -0.01687   0.00000   0.00000  -0.04159  -0.02617
  17        5XY         0.00000   0.00000   0.00000   0.00000   0.00000
  18        5XZ         0.00000  -0.02395   0.00000   0.00000   0.00000
  19        5YZ         0.00000   0.00000   0.02774   0.00000   0.00000
  20 2   O  1S          0.01019   0.00000   0.00000   0.01916   0.01012
  21        2S         -0.02044   0.00000   0.00000  -0.05127  -0.02930
  22        2PX         0.00000   0.18710   0.00000   0.00000   0.00000
  23        2PY         0.00000   0.00000  -0.04628   0.00000   0.00000
  24        2PZ         0.11767   0.00000   0.00000  -0.23889  -0.08131
  25        3S         -0.11171   0.00000   0.00000   0.00990  -0.03035
  26        3PX         0.00000   0.12644   0.00000   0.00000   0.00000
  27        3PY         0.00000   0.00000  -0.09489   0.00000   0.00000
  28        3PZ         0.03964   0.00000   0.00000  -0.12343  -0.04979
  29        4XX         0.00169   0.00000   0.00000   0.00064   0.00093
  30        4YY         0.00057   0.00000   0.00000   0.00105   0.00074
  31        4ZZ         0.01677   0.00000   0.00000  -0.01416  -0.00126
  32        4XY         0.00000   0.00000   0.00000   0.00000   0.00000
  33        4XZ         0.00000   0.01212   0.00000   0.00000   0.00000
  34        4YZ         0.00000   0.00000   0.00568   0.00000   0.00000
                          11        12        13        14        15
  11        4PX         0.02213
  12        4PY         0.00000   0.20756
  13        4PZ         0.00000   0.00000   0.00613
  14        5XX         0.00000   0.00000   0.00083   0.00264
  15        5YY         0.00000   0.00000   0.00179   0.00285   0.00324
  16        5ZZ         0.00000   0.00000  -0.00402  -0.00325  -0.00414
  17        5XY         0.00000   0.00000   0.00000   0.00000   0.00000
  18        5XZ        -0.01013   0.00000   0.00000   0.00000   0.00000
  19        5YZ         0.00000   0.02503   0.00000   0.00000   0.00000
  20 2   O  1S          0.00000   0.00000  -0.00198   0.00385   0.00448
  21        2S          0.00000   0.00000   0.00637  -0.00978  -0.01136
  22        2PX         0.07918   0.00000   0.00000   0.00000   0.00000
  23        2PY         0.00000  -0.08779   0.00000   0.00000   0.00000
  24        2PZ         0.00000   0.00000  -0.01716  -0.02381  -0.02613
  25        3S          0.00000   0.00000   0.00669  -0.00187  -0.00359
  26        3PX         0.05352   0.00000   0.00000   0.00000   0.00000
  27        3PY         0.00000  -0.10095   0.00000   0.00000   0.00000
  28        3PZ         0.00000   0.00000  -0.01097  -0.01132  -0.01275
  29        4XX         0.00000   0.00000   0.00009   0.00005   0.00008
  30        4YY         0.00000   0.00000   0.00007   0.00011   0.00014
  31        4ZZ         0.00000   0.00000  -0.00024  -0.00177  -0.00179
  32        4XY         0.00000   0.00000   0.00000   0.00000   0.00000
  33        4XZ         0.00514   0.00000   0.00000   0.00000   0.00000
  34        4YZ         0.00000   0.00078   0.00000   0.00000   0.00000
                          16        17        18        19        20
  16        5ZZ         0.00856
  17        5XY         0.00000   0.00000
  18        5XZ         0.00000   0.00000   0.00465
  19        5YZ         0.00000   0.00000   0.00000   0.00927
  20 2   O  1S         -0.01027   0.00000   0.00000   0.00000   1.03977
  21        2S          0.02440   0.00000   0.00000   0.00000  -0.09583
  22        2PX         0.00000   0.00000  -0.03635   0.00000   0.00000
  23        2PY         0.00000   0.00000   0.00000  -0.06146   0.00000
  24        2PZ         0.03667   0.00000   0.00000   0.00000   0.01714
  25        3S          0.01536   0.00000   0.00000   0.00000  -0.11753
  26        3PX         0.00000   0.00000  -0.02457   0.00000   0.00000
  27        3PY         0.00000   0.00000   0.00000  -0.04705   0.00000
  28        3PZ         0.01827   0.00000   0.00000   0.00000   0.01438
  29        4XX        -0.00021   0.00000   0.00000   0.00000  -0.00702
  30        4YY        -0.00025   0.00000   0.00000   0.00000  -0.00709
  31        4ZZ         0.00229   0.00000   0.00000   0.00000  -0.00794
  32        4XY         0.00000   0.00000   0.00000   0.00000   0.00000
  33        4XZ         0.00000   0.00000  -0.00236   0.00000   0.00000
  34        4YZ         0.00000   0.00000   0.00000  -0.00245   0.00000
                          21        22        23        24        25
  21        2S          0.27570
  22        2PX         0.00000   0.28406
  23        2PY         0.00000   0.00000   0.45109
  24        2PZ        -0.02760   0.00000   0.00000   0.33650
  25        3S          0.28565   0.00000   0.00000  -0.13702   0.33681
  26        3PX         0.00000   0.19199   0.00000   0.00000   0.00000
  27        3PY         0.00000   0.00000   0.32649   0.00000   0.00000
  28        3PZ        -0.02769   0.00000   0.00000   0.17031  -0.08105
  29        4XX        -0.00203   0.00000   0.00000   0.00040  -0.00219
  30        4YY        -0.00165   0.00000   0.00000  -0.00061  -0.00141
  31        4ZZ         0.00054   0.00000   0.00000   0.02281  -0.00764
  32        4XY         0.00000   0.00000   0.00000   0.00000   0.00000
  33        4XZ         0.00000   0.01842   0.00000   0.00000   0.00000
  34        4YZ         0.00000   0.00000   0.02037   0.00000   0.00000
                          26        27        28        29        30
  26        3PX         0.12976
  27        3PY         0.00000   0.24366
  28        3PZ         0.00000   0.00000   0.08772
  29        4XX         0.00000   0.00000   0.00024   0.00008
  30        4YY         0.00000   0.00000  -0.00026   0.00007   0.00007
  31        4ZZ         0.00000   0.00000   0.01107   0.00010   0.00002
  32        4XY         0.00000   0.00000   0.00000   0.00000   0.00000
  33        4XZ         0.01245   0.00000   0.00000   0.00000   0.00000
  34        4YZ         0.00000   0.01381   0.00000   0.00000   0.00000
                          31        32        33        34
  31        4ZZ         0.00179
  32        4XY         0.00000   0.00000
  33        4XZ         0.00000   0.00000   0.00119
  34        4YZ         0.00000   0.00000   0.00000   0.00104
     Beta Density Matrix:
                           1         2         3         4         5
   1 1   P  1S          1.07342
   2        2S         -0.29253   1.16640
   3        2PX         0.00000   0.00000   1.00307
   4        2PY         0.00000   0.00000   0.00000   1.00210
   5        2PZ        -0.00303   0.01450   0.00000   0.00000   1.02359
   6        3S          0.00917  -0.18037   0.00000   0.00000  -0.02974
   7        3PX         0.00000   0.00000  -0.01982   0.00000   0.00000
   8        3PY         0.00000   0.00000   0.00000  -0.01628   0.00000
   9        3PZ         0.00947  -0.04492   0.00000   0.00000  -0.06723
  10        4S          0.03163  -0.12699   0.00000   0.00000  -0.06272
  11        4PX         0.00000   0.00000  -0.02802   0.00000   0.00000
  12        4PY         0.00000   0.00000   0.00000  -0.02684   0.00000
  13        4PZ         0.00593  -0.02714   0.00000   0.00000  -0.01841
  14        5XX         0.01432  -0.01856   0.00000   0.00000  -0.00909
  15        5YY         0.01190  -0.00725   0.00000   0.00000  -0.00561
  16        5ZZ         0.01351  -0.01499   0.00000   0.00000   0.01346
  17        5XY         0.00000   0.00000   0.00000   0.00000   0.00000
  18        5XZ         0.00000   0.00000   0.00915   0.00000   0.00000
  19        5YZ         0.00000   0.00000   0.00000   0.00892   0.00000
  20 2   O  1S         -0.00015   0.00172   0.00000   0.00000  -0.01184
  21        2S          0.00009  -0.00224   0.00000   0.00000   0.03027
  22        2PX         0.00000   0.00000  -0.07275   0.00000   0.00000
  23        2PY         0.00000   0.00000   0.00000  -0.06967   0.00000
  24        2PZ         0.01050  -0.04443   0.00000   0.00000   0.09384
  25        3S         -0.00611   0.02601   0.00000   0.00000   0.01107
  26        3PX         0.00000   0.00000  -0.05061   0.00000   0.00000
  27        3PY         0.00000   0.00000   0.00000  -0.04971   0.00000
  28        3PZ         0.00494  -0.01761   0.00000   0.00000   0.05438
  29        4XX         0.00007   0.00021   0.00000   0.00000  -0.00002
  30        4YY         0.00006   0.00032   0.00000   0.00000  -0.00034
  31        4ZZ         0.00116  -0.00547   0.00000   0.00000   0.00533
  32        4XY         0.00000   0.00000   0.00000   0.00000   0.00000
  33        4XZ         0.00000   0.00000  -0.00529   0.00000   0.00000
  34        4YZ         0.00000   0.00000   0.00000  -0.00511   0.00000
                           6         7         8         9        10
   6        3S          0.57541
   7        3PX         0.00000   0.11982
   8        3PY         0.00000   0.00000   0.10651
   9        3PZ         0.08561   0.00000   0.00000   0.24194
  10        4S          0.24311   0.00000   0.00000   0.15341   0.16486
  11        4PX         0.00000   0.05094   0.00000   0.00000   0.00000
  12        4PY         0.00000   0.00000   0.04835   0.00000   0.00000
  13        4PZ         0.05673   0.00000   0.00000   0.03174   0.03661
  14        5XX        -0.00369   0.00000   0.00000   0.02289   0.01113
  15        5YY        -0.03058   0.00000   0.00000   0.01335  -0.00318
  16        5ZZ        -0.00932   0.00000   0.00000  -0.03929  -0.02213
  17        5XY         0.00000   0.00000   0.00000   0.00000   0.00000
  18        5XZ         0.00000  -0.02423   0.00000   0.00000   0.00000
  19        5YZ         0.00000   0.00000  -0.02367   0.00000   0.00000
  20 2   O  1S          0.00970   0.00000   0.00000   0.01912   0.00908
  21        2S         -0.02430   0.00000   0.00000  -0.05251  -0.02933
  22        2PX         0.00000   0.18318   0.00000   0.00000   0.00000
  23        2PY         0.00000   0.00000   0.17313   0.00000   0.00000
  24        2PZ         0.11832   0.00000   0.00000  -0.23694  -0.08136
  25        3S         -0.09907   0.00000   0.00000   0.01395  -0.02097
  26        3PX         0.00000   0.12620   0.00000   0.00000   0.00000
  27        3PY         0.00000   0.00000   0.12241   0.00000   0.00000
  28        3PZ         0.04355   0.00000   0.00000  -0.12369  -0.04918
  29        4XX        -0.00076   0.00000   0.00000  -0.00019  -0.00035
  30        4YY        -0.00035   0.00000   0.00000   0.00023  -0.00011
  31        4ZZ         0.01368   0.00000   0.00000  -0.01583  -0.00327
  32        4XY         0.00000   0.00000   0.00000   0.00000   0.00000
  33        4XZ         0.00000   0.01222   0.00000   0.00000   0.00000
  34        4YZ         0.00000   0.00000   0.01179   0.00000   0.00000
                          11        12        13        14        15
  11        4PX         0.02204
  12        4PY         0.00000   0.02233
  13        4PZ         0.00000   0.00000   0.00857
  14        5XX         0.00000   0.00000   0.00193   0.00294
  15        5YY         0.00000   0.00000  -0.00131   0.00249   0.00345
  16        5ZZ         0.00000   0.00000  -0.00400  -0.00375  -0.00246
  17        5XY         0.00000   0.00000   0.00000   0.00000   0.00000
  18        5XZ        -0.01040   0.00000   0.00000   0.00000   0.00000
  19        5YZ         0.00000  -0.01085   0.00000   0.00000   0.00000
  20 2   O  1S          0.00000   0.00000  -0.00114   0.00422   0.00341
  21        2S          0.00000   0.00000   0.00355  -0.01066  -0.00846
  22        2PX         0.07871   0.00000   0.00000   0.00000   0.00000
  23        2PY         0.00000   0.07944   0.00000   0.00000   0.00000
  24        2PZ         0.00000   0.00000  -0.01763  -0.02451  -0.02391
  25        3S          0.00000   0.00000   0.00528  -0.00318   0.00066
  26        3PX         0.05424   0.00000   0.00000   0.00000   0.00000
  27        3PY         0.00000   0.05617   0.00000   0.00000   0.00000
  28        3PZ         0.00000   0.00000  -0.01134  -0.01211  -0.01100
  29        4XX         0.00000   0.00000  -0.00010   0.00001   0.00004
  30        4YY         0.00000   0.00000  -0.00022   0.00015   0.00016
  31        4ZZ         0.00000   0.00000  -0.00049  -0.00185  -0.00207
  32        4XY         0.00000   0.00000   0.00000   0.00000   0.00000
  33        4XZ         0.00526   0.00000   0.00000   0.00000   0.00000
  34        4YZ         0.00000   0.00542   0.00000   0.00000   0.00000
                          16        17        18        19        20
  16        5ZZ         0.00775
  17        5XY         0.00000   0.00000
  18        5XZ         0.00000   0.00000   0.00493
  19        5YZ         0.00000   0.00000   0.00000   0.00529
  20 2   O  1S         -0.00989   0.00000   0.00000   0.00000   1.03953
  21        2S          0.02341   0.00000   0.00000   0.00000  -0.09373
  22        2PX         0.00000   0.00000  -0.03727   0.00000   0.00000
  23        2PY         0.00000   0.00000   0.00000  -0.03871   0.00000
  24        2PZ         0.03638   0.00000   0.00000   0.00000   0.01761
  25        3S          0.01328   0.00000   0.00000   0.00000  -0.11833
  26        3PX         0.00000   0.00000  -0.02568   0.00000   0.00000
  27        3PY         0.00000   0.00000   0.00000  -0.02737   0.00000
  28        3PZ         0.01808   0.00000   0.00000   0.00000   0.01472
  29        4XX         0.00001   0.00000   0.00000   0.00000  -0.00744
  30        4YY        -0.00033   0.00000   0.00000   0.00000  -0.00539
  31        4ZZ         0.00276   0.00000   0.00000   0.00000  -0.00851
  32        4XY         0.00000   0.00000   0.00000   0.00000   0.00000
  33        4XZ         0.00000   0.00000  -0.00249   0.00000   0.00000
  34        4YZ         0.00000   0.00000   0.00000  -0.00264   0.00000
                          21        22        23        24        25
  21        2S          0.26723
  22        2PX         0.00000   0.28185
  23        2PY         0.00000   0.00000   0.28329
  24        2PZ        -0.02796   0.00000   0.00000   0.33266
  25        3S          0.28362   0.00000   0.00000  -0.13920   0.34000
  26        3PX         0.00000   0.19421   0.00000   0.00000   0.00000
  27        3PY         0.00000   0.00000   0.20031   0.00000   0.00000
  28        3PZ        -0.02766   0.00000   0.00000   0.17113  -0.08404
  29        4XX        -0.00044   0.00000   0.00000   0.00001  -0.00029
  30        4YY        -0.00517   0.00000   0.00000   0.00111  -0.00549
  31        4ZZ         0.00250   0.00000   0.00000   0.02294  -0.00530
  32        4XY         0.00000   0.00000   0.00000   0.00000   0.00000
  33        4XZ         0.00000   0.01882   0.00000   0.00000   0.00000
  34        4YZ         0.00000   0.00000   0.01931   0.00000   0.00000
                          26        27        28        29        30
[...]
  14        5XX         0.00007  -0.00533   0.00000   0.00000   0.00000
  15        5YY         0.00006  -0.00416   0.00000   0.00000   0.00000
  16        5ZZ         0.00006  -0.00420   0.00000   0.00000   0.00000
  17        5XY         0.00000   0.00000   0.00000   0.00000   0.00000
  18        5XZ         0.00000   0.00000   0.00000   0.00000   0.00000
  19        5YZ         0.00000   0.00000   0.00000   0.00000   0.00000
  20 2   O  1S          0.00000   0.00000   0.00000   0.00000   0.00000
  21        2S          0.00000  -0.00003   0.00000   0.00000  -0.00046
  22        2PX         0.00000   0.00000  -0.00026   0.00000   0.00000
  23        2PY         0.00000   0.00000   0.00000  -0.00011   0.00000
  24        2PZ         0.00001  -0.00094   0.00000   0.00000  -0.00314
  25        3S         -0.00011   0.00414   0.00000   0.00000  -0.00107
  26        3PX         0.00000   0.00000  -0.00312   0.00000   0.00000
  27        3PY         0.00000   0.00000   0.00000  -0.00066   0.00000
  28        3PZ         0.00021  -0.00609   0.00000   0.00000  -0.00954
  29        4XX         0.00000   0.00000   0.00000   0.00000   0.00000
  30        4YY         0.00000   0.00000   0.00000   0.00000   0.00000
  31        4ZZ         0.00001  -0.00075   0.00000   0.00000  -0.00074
  32        4XY         0.00000   0.00000   0.00000   0.00000   0.00000
  33        4XZ         0.00000   0.00000  -0.00018   0.00000   0.00000
  34        4YZ         0.00000   0.00000   0.00000  -0.00013   0.00000
                           6         7         8         9        10
   6        3S          1.14607
   7        3PX         0.00000   0.24381
   8        3PY         0.00000   0.00000   0.62422
   9        3PZ         0.00000   0.00000   0.00000   0.48158
  10        4S          0.40795   0.00000   0.00000   0.00000   0.33015
  11        4PX         0.00000   0.06743   0.00000   0.00000   0.00000
  12        4PY         0.00000   0.00000   0.24270   0.00000   0.00000
  13        4PZ         0.00000   0.00000   0.00000   0.03831   0.00000
  14        5XX        -0.01105   0.00000   0.00000   0.00000   0.01069
  15        5YY        -0.02482   0.00000   0.00000   0.00000   0.00534
  16        5ZZ        -0.01917   0.00000   0.00000   0.00000  -0.02897
  17        5XY         0.00000   0.00000   0.00000   0.00000   0.00000
  18        5XZ         0.00000   0.00000   0.00000   0.00000   0.00000
  19        5YZ         0.00000   0.00000   0.00000   0.00000   0.00000
  20 2   O  1S          0.00041   0.00000   0.00000  -0.00176   0.00071
  21        2S         -0.00653   0.00000   0.00000   0.02853  -0.01290
  22        2PX         0.00000   0.02703   0.00000   0.00000   0.00000
  23        2PY         0.00000   0.00000   0.00927   0.00000   0.00000
  24        2PZ         0.03255   0.00000   0.00000   0.10133  -0.01402
  25        3S         -0.07255   0.00000   0.00000  -0.01047  -0.02388
  26        3PX         0.00000   0.07554   0.00000   0.00000   0.00000
  27        3PY         0.00000   0.00000   0.00818   0.00000   0.00000
  28        3PZ         0.04182   0.00000   0.00000   0.09926  -0.03666
  29        4XX         0.00013   0.00000   0.00000  -0.00012   0.00015
  30        4YY         0.00003   0.00000   0.00000  -0.00032   0.00016
  31        4ZZ         0.00917   0.00000   0.00000   0.01289  -0.00134
  32        4XY         0.00000   0.00000   0.00000   0.00000   0.00000
  33        4XZ         0.00000   0.00415   0.00000   0.00000   0.00000
  34        4YZ         0.00000   0.00000   0.00298   0.00000   0.00000
                          11        12        13        14        15
  11        4PX         0.04400
  12        4PY         0.00000   0.23010
  13        4PZ         0.00000   0.00000   0.01467
  14        5XX         0.00000   0.00000   0.00000   0.00560
  15        5YY         0.00000   0.00000   0.00000   0.00179   0.00672
  16        5ZZ         0.00000   0.00000   0.00000  -0.00234  -0.00221
  17        5XY         0.00000   0.00000   0.00000   0.00000   0.00000
  18        5XZ         0.00000   0.00000   0.00000   0.00000   0.00000
  19        5YZ         0.00000   0.00000   0.00000   0.00000   0.00000
  20 2   O  1S          0.00000   0.00000   0.00020   0.00000   0.00000
  21        2S          0.00000   0.00000  -0.00352  -0.00050  -0.00048
  22        2PX         0.01516   0.00000   0.00000   0.00000   0.00000
  23        2PY         0.00000  -0.00084   0.00000   0.00000   0.00000
  24        2PZ         0.00000   0.00000   0.00155  -0.00158  -0.00163
  25        3S          0.00000   0.00000  -0.00721  -0.00083  -0.00048
  26        3PX         0.04451   0.00000   0.00000   0.00000   0.00000
  27        3PY         0.00000  -0.01873   0.00000   0.00000   0.00000
  28        3PZ         0.00000   0.00000   0.00155  -0.00765  -0.00775
  29        4XX         0.00000   0.00000   0.00001   0.00000   0.00000
  30        4YY         0.00000   0.00000   0.00006   0.00001   0.00002
  31        4ZZ         0.00000   0.00000   0.00026  -0.00038  -0.00041
  32        4XY         0.00000   0.00000   0.00000   0.00000   0.00000
  33        4XZ         0.00090   0.00000   0.00000   0.00000   0.00000
  34        4YZ         0.00000   0.00053   0.00000   0.00000   0.00000
                          16        17        18        19        20
  16        5ZZ         0.01635
  17        5XY         0.00000   0.00000
  18        5XZ         0.00000   0.00000   0.00961
  19        5YZ         0.00000   0.00000   0.00000   0.01462
  20 2   O  1S         -0.00079   0.00000   0.00000   0.00000   2.07929
  21        2S          0.01275   0.00000   0.00000   0.00000  -0.04429
  22        2PX         0.00000   0.00000   0.00823   0.00000   0.00000
  23        2PY         0.00000   0.00000   0.00000   0.01120   0.00000
  24        2PZ         0.02077   0.00000   0.00000   0.00000   0.00000
  25        3S          0.01149   0.00000   0.00000   0.00000  -0.03943
  26        3PX         0.00000   0.00000   0.01395   0.00000   0.00000
  27        3PY         0.00000   0.00000   0.00000   0.02067   0.00000
  28        3PZ         0.01709   0.00000   0.00000   0.00000   0.00000
  29        4XX        -0.00004   0.00000   0.00000   0.00000  -0.00049
  30        4YY        -0.00011   0.00000   0.00000   0.00000  -0.00042
  31        4ZZ         0.00239   0.00000   0.00000   0.00000  -0.00055
  32        4XY         0.00000   0.00000   0.00000   0.00000   0.00000
  33        4XZ         0.00000   0.00000   0.00142   0.00000   0.00000
  34        4YZ         0.00000   0.00000   0.00000   0.00149   0.00000
                          21        22        23        24        25
  21        2S          0.54285
  22        2PX         0.00000   0.56596
  23        2PY         0.00000   0.00000   0.73435
  24        2PZ         0.00000   0.00000   0.00000   0.66963
  25        3S          0.43442   0.00000   0.00000   0.00000   0.67647
  26        3PX         0.00000   0.19364   0.00000   0.00000   0.00000
  27        3PY         0.00000   0.00000   0.26418   0.00000   0.00000
  28        3PZ         0.00000   0.00000   0.00000   0.17118   0.00000
  29        4XX        -0.00134   0.00000   0.00000   0.00000  -0.00171
  30        4YY        -0.00372   0.00000   0.00000   0.00000  -0.00480
  31        4ZZ         0.00168   0.00000   0.00000   0.00000  -0.00908
  32        4XY         0.00000   0.00000   0.00000   0.00000   0.00000
  33        4XZ         0.00000   0.00000   0.00000   0.00000   0.00000
  34        4YZ         0.00000   0.00000   0.00000   0.00000   0.00000
                          26        27        28        29        30
  26        3PX         0.26344
  27        3PY         0.00000   0.38529
  28        3PZ         0.00000   0.00000   0.17685
  29        4XX         0.00000   0.00000   0.00000   0.00014
  30        4YY         0.00000   0.00000   0.00000   0.00005   0.00023
  31        4ZZ         0.00000   0.00000   0.00000   0.00005   0.00002
  32        4XY         0.00000   0.00000   0.00000   0.00000   0.00000
  33        4XZ         0.00000   0.00000   0.00000   0.00000   0.00000
  34        4YZ         0.00000   0.00000   0.00000   0.00000   0.00000
                          31        32        33        34
  31        4ZZ         0.00358
  32        4XY         0.00000   0.00000
  33        4XZ         0.00000   0.00000   0.00246
  34        4YZ         0.00000   0.00000   0.00000   0.00236
     Gross orbital populations:
                         Total     Alpha     Beta      Spin
   1 1   P  1S          1.99865   0.99932   0.99932   0.00000
   2        2S          1.99088   0.99549   0.99539   0.00011
   3        2PX         1.98670   0.99335   0.99335   0.00001
   4        2PY         1.99031   0.99676   0.99355   0.00321
   5        2PZ         1.98953   0.99474   0.99479  -0.00006
   6        3S          1.39440   0.69712   0.69727  -0.00015
   7        3PX         0.40576   0.20526   0.20050   0.00476
   8        3PY         0.83471   0.65009   0.18462   0.46546
   9        3PZ         0.70956   0.35229   0.35727  -0.00497
  10        4S          0.57503   0.28764   0.28739   0.00025
  11        4PX         0.16787   0.08416   0.08371   0.00046
  12        4PY         0.44280   0.35954   0.08326   0.27627
  13        4PZ         0.04335   0.01781   0.02553  -0.00772
  14        5XX        -0.01151  -0.00936  -0.00214  -0.00722
  15        5YY        -0.02801  -0.00138  -0.02663   0.02525
  16        5ZZ         0.02308   0.00856   0.01452  -0.00596
  17        5XY         0.00000   0.00000   0.00000   0.00000
  18        5XZ         0.03321   0.01624   0.01697  -0.00073
  19        5YZ         0.04798   0.02997   0.01801   0.01197
  20 2   O  1S          1.99290   0.99642   0.99648  -0.00005
  21        2S          0.94645   0.47770   0.46875   0.00895
  22        2PX         0.80977   0.40555   0.40422   0.00133
  23        2PY         1.01805   0.60983   0.40822   0.20161
  24        2PZ         0.97571   0.48973   0.48598   0.00376
  25        3S          0.95492   0.47315   0.48177  -0.00863
  26        3PX         0.58795   0.29112   0.29682  -0.00570
  27        3PY         0.65892   0.35107   0.30786   0.04321
  28        3PZ         0.44027   0.21801   0.22225  -0.00424
  29        4XX        -0.00317  -0.00249  -0.00069  -0.00180
  30        4YY        -0.00881  -0.00207  -0.00673   0.00466
  31        4ZZ         0.01679   0.00731   0.00948  -0.00217
  32        4XY         0.00000   0.00000   0.00000   0.00000
  33        4XZ         0.00875   0.00431   0.00444  -0.00013
  34        4YZ         0.00723   0.00274   0.00448  -0.00174
          Condensed to atoms (all electrons):
               1          2
     1  P   14.210202   0.384075
     2  O    0.384075   8.021648
          Atomic-Atomic Spin Densities.
               1          2
     1  P    0.922975  -0.162029
     2  O   -0.162029   0.401083
 Mulliken charges and spin densities:
               1          2
     1  P    0.405723   0.760946
     2  O   -0.405723   0.239054
 Sum of Mulliken charges =   0.00000   1.00000
 Mulliken charges and spin densities with hydrogens summed into heavy atoms:
               1          2
     1  P    0.405723   0.760946
     2  O   -0.405723   0.239054
 Electronic spatial extent (au):  <R**2>=             81.3907
 Charge=              0.0000 electrons
 Dipole moment (field-independent basis, Debye):
    X=              0.0000    Y=              0.0000    Z=              1.9993  Tot=              1.9993
 Quadrupole moment (field-independent basis, Debye-Ang):
   XX=            -15.8123   YY=            -18.5429   ZZ=            -18.8350
   XY=              0.0000   XZ=              0.0000   YZ=              0.0000
 Traceless Quadrupole moment (field-independent basis, Debye-Ang):
   XX=              1.9178   YY=             -0.8128   ZZ=             -1.1049
   XY=              0.0000   XZ=              0.0000   YZ=              0.0000
 Octapole moment (field-independent basis, Debye-Ang**2):
  XXX=              0.0000  YYY=              0.0000  ZZZ=             -1.6702  XYY=              0.0000
  XXY=              0.0000  XXZ=             -0.5861  XZZ=              0.0000  YZZ=              0.0000
  YYZ=             -2.1376  XYZ=              0.0000
 Hexadecapole moment (field-independent basis, Debye-Ang**3):
 XXXX=            -16.9030 YYYY=            -24.5316 ZZZZ=            -71.4308 XXXY=              0.0000
 XXXZ=              0.0000 YYYX=              0.0000 YYYZ=              0.0000 ZZZX=              0.0000
 ZZZY=              0.0000 XXYY=             -6.9056 XXZZ=            -14.2300 YYZZ=            -16.7047
 XXYZ=              0.0000 YYXZ=              0.0000 ZZXY=              0.0000
 N-N= 4.237266513116D+01 E-N=-1.074057047156D+03  KE= 4.147139658696D+02
 Symmetry A1   KE= 3.460588734403D+02
 Symmetry A2   KE= 3.280137780070D-35
 Symmetry B1   KE= 3.335054234963D+01
 Symmetry B2   KE= 3.530455007966D+01
 Orbital energies and kinetic energies (alpha):
                                 1                 2
   1         O               -77.152857        106.046866
   2         O               -19.190053         29.028406
   3         O                -6.620932         15.690747
   4         O                -4.785324         14.717236
   5         O                -4.781828         14.723580
   6         O                -4.779891         14.702903
   7         O                -1.019147          2.864736
   8         O                -0.558134          2.451587
   9         O                -0.401286          2.047122
  10         O                -0.387711          2.268669
  11         O                -0.385284          1.964050
  12         O                -0.195217          1.869223
  13         V                -0.123382          1.806666
  14         V                 0.029493          1.226342
  15         V                 0.220569          1.680185
  16         V                 0.280551          1.741415
  17         V                 0.282653          1.815368
  18         V                 0.400118          2.782706
  19         V                 0.617101          1.917249
  20         V                 0.619749          1.917575
  21         V                 0.654659          2.408664
  22         V                 0.660685          2.419953
  23         V                 0.808037          2.403101
  24         V                 0.967458          3.109246
  25         V                 0.970492          3.174580
  26         V                 1.116952          4.161807
  27         V                 1.194334          2.158900
  28         V                 1.776741          2.824779
  29         V                 1.777268          2.824781
  30         V                 2.004987          3.265079
  31         V                 2.007156          3.263679
  32         V                 2.712816          4.611897
  33         V                 3.397538         10.634385
  34         V                 3.536561         10.051811
 Orbital energies and kinetic energies (beta):
                                 1                 2
   1         O               -77.149728        106.048645
   2         O               -19.182197         29.037611
   3         O                -6.617735         15.690381
   4         O                -4.783564         14.718036
   5         O                -4.778289         14.703729
   6         O                -4.770924         14.726790
   7         O                -1.003055          2.834156
   8         O                -0.531047          2.480001
   9         O                -0.378753          1.951221
  10         O                -0.371928          2.210437
  11         O                -0.353730          1.937834
  12         V                -0.112905          1.783925
  13         V                -0.081403          1.708775
  14         V                 0.039274          1.208708
  15         V                 0.231255          1.698320
  16         V                 0.286149          1.832171
  17         V                 0.305721          1.889416
  18         V                 0.406148          2.829867
  19         V                 0.655753          1.916940
  20         V                 0.655943          1.925458
  21         V                 0.664342          2.420482
  22         V                 0.692027          2.426164
  23         V                 0.814984          2.409528
  24         V                 0.973843          3.191492
  25         V                 0.991099          3.207136
  26         V                 1.128930          4.152769
  27         V                 1.198374          2.156156
  28         V                 1.793097          2.825089
  29         V                 1.793145          2.825331
  30         V                 2.007607          3.265604
  31         V                 2.026986          3.266816
  32         V                 2.721167          4.607716
  33         V                 3.408290         10.632218
  34         V                 3.548143         10.056372
 Total kinetic energy from orbitals= 4.147139658696D+02
                          Isotropic Fermi Contact Couplings
        Atom                 a.u.       MegaHertz       Gauss      10(-4) cm-1
     1  P(31)              0.03361      60.86786      21.71917      20.30333
     2  O(17)              0.04534     -27.48658      -9.80790      -9.16854
 --------------------------------------------------------
       Center         ----  Spin Dipole Couplings  ----
                      3XX-RR        3YY-RR        3ZZ-RR
 --------------------------------------------------------
     1   Atom       -1.062209      2.168350     -1.106140
     2   Atom       -0.637263      1.228963     -0.591700
 --------------------------------------------------------
                        XY            XZ            YZ
 --------------------------------------------------------
     1   Atom        0.000000      0.000000      0.000000
     2   Atom        0.000000      0.000000      0.000000
 --------------------------------------------------------


 ---------------------------------------------------------------------------------
              Anisotropic Spin Dipole Couplings in Principal Axis System
 ---------------------------------------------------------------------------------

       Atom             a.u.   MegaHertz   Gauss  10(-4) cm-1        Axes

              Baa    -1.1061  -239.130   -85.327   -79.765  0.0000  0.0000  1.0000
     1 P(31)  Bbb    -1.0622  -229.632   -81.939   -76.597  1.0000  0.0000  0.0000
              Bcc     2.1683   468.762   167.266   156.362  0.0000  1.0000  0.0000
 
              Baa    -0.6373    46.112    16.454    15.381  1.0000  0.0000  0.0000
     2 O(17)  Bbb    -0.5917    42.815    15.277    14.282  0.0000  0.0000  1.0000
              Bcc     1.2290   -88.927   -31.731   -29.663  0.0000  1.0000  0.0000
 

 ---------------------------------------------------------------------------------

 No NMR shielding tensors so no spin-rotation constants.
 Leave Link  601 at Wed Apr  8 12:47:20 2026, MaxMem=    33554432 cpu:         0.1
 (Enter /opt/g09/g09/l9999.exe)
 1\1\GINC-KADET27\FOpt\UB3LYP\6-31G(d)\O1P1(2)\MDOROHUN\08-Apr-2026\0\\
 #p UB3LYP/6-31G(d) Opt Pop=Full\\PO optymalizacja baza 6-31G(d)\\0,2\P
 ,0.,0.,0.0006812489\O,0.,0.,1.4993187511\\Version=ES64L-G09RevD.01\HF=
 -416.5305681\S2=0.752575\S2-1=0.\S2A=0.750004\RMSD=3.141e-09\RMSF=6.02
 3e-09\Dipole=0.,0.,-0.7866008\Quadrupole=1.4258218,-0.6043209,-0.82150
 1,0.,0.,0.\PG=C*V [C*(O1P1)]\\@


 DO NOT LET SELFISH MEN OR GREEDY INTERESTS SKIN YOUR COUNTRY OF ITS
 BEAUTY, ITS RICHES, OR ITS ROMANCE. -- THEODORE ROOSEVELT
 Job cpu time:       0 days  0 hours  0 minutes  1.5 seconds.
 File lengths (MBytes):  RWF=      5 Int=      0 D2E=      0 Chk=      1 Scr=      1
 Normal termination of Gaussian 09 at Wed Apr  8 12:47:20 2026.
