 Entering Gaussian System, Link 0=/opt/g09/g09/g09
 Input=INPUTS/6_311G_2df.inp
 Output=INPUTS/6_311G_2df.log
 Initial command:
 /opt/g09/g09/l1.exe "/tmp/Gau-10074.inp" -scrdir="/tmp/"
 Entering Link 1 = /opt/g09/g09/l1.exe PID=     10076.
  
 Copyright (c) 1988,1990,1992,1993,1995,1998,2003,2009,2013,
            Gaussian, Inc.  All Rights Reserved.
  
 This is part of the Gaussian(R) 09 program.  It is based on
 the Gaussian(R) 03 system (copyright 2003, Gaussian, Inc.),
 the Gaussian(R) 98 system (copyright 1998, Gaussian, Inc.),
 the Gaussian(R) 94 system (copyright 1995, Gaussian, Inc.),
 the Gaussian 92(TM) system (copyright 1992, Gaussian, Inc.),
 the Gaussian 90(TM) system (copyright 1990, Gaussian, Inc.),
 the Gaussian 88(TM) system (copyright 1988, Gaussian, Inc.),
 the Gaussian 86(TM) system (copyright 1986, Carnegie Mellon
 University), and the Gaussian 82(TM) system (copyright 1983,
 Carnegie Mellon University). Gaussian is a federally registered
 trademark of Gaussian, Inc.
  
 This software contains proprietary and confidential information,
 including trade secrets, belonging to Gaussian, Inc.
  
 This software is provided under written license and may be
 used, copied, transmitted, or stored only in accord with that
 written license.
  
 The following legend is applicable only to US Government
 contracts under FAR:
  
                    RESTRICTED RIGHTS LEGEND
  
 Use, reproduction and disclosure by the US Government is
 subject to restrictions as set forth in subparagraphs (a)
 and (c) of the Commercial Computer Software - Restricted
 Rights clause in FAR 52.227-19.
  
 Gaussian, Inc.
 340 Quinnipiac St., Bldg. 40, Wallingford CT 06492
  
  
 ---------------------------------------------------------------
 Warning -- This program may not be used in any manner that
 competes with the business of Gaussian, Inc. or will provide
 assistance to any competitor of Gaussian, Inc.  The licensee
 of this program is prohibited from giving any competitor of
 Gaussian, Inc. access to this program.  By using this program,
 the user acknowledges that Gaussian, Inc. is engaged in the
 business of creating and licensing software in the field of
 computational chemistry and represents and warrants to the
 licensee that it is not a competitor of Gaussian, Inc. and that
 it will not use this program in any manner prohibited above.
 ---------------------------------------------------------------
  

 Cite this work as:
 Gaussian 09, Revision D.01,
 M. J. Frisch, G. W. Trucks, H. B. Schlegel, G. E. Scuseria, 
 M. A. Robb, J. R. Cheeseman, G. Scalmani, V. Barone, B. Mennucci, 
 G. A. Petersson, H. Nakatsuji, M. Caricato, X. Li, H. P. Hratchian, 
 A. F. Izmaylov, J. Bloino, G. Zheng, J. L. Sonnenberg, M. Hada, 
 M. Ehara, K. Toyota, R. Fukuda, J. Hasegawa, M. Ishida, T. Nakajima, 
 Y. Honda, O. Kitao, H. Nakai, T. Vreven, J. A. Montgomery, Jr., 
 J. E. Peralta, F. Ogliaro, M. Bearpark, J. J. Heyd, E. Brothers, 
 K. N. Kudin, V. N. Staroverov, T. Keith, R. Kobayashi, J. Normand, 
 K. Raghavachari, A. Rendell, J. C. Burant, S. S. Iyengar, J. Tomasi, 
 M. Cossi, N. Rega, J. M. Millam, M. Klene, J. E. Knox, J. B. Cross, 
 V. Bakken, C. Adamo, J. Jaramillo, R. Gomperts, R. E. Stratmann, 
 O. Yazyev, A. J. Austin, R. Cammi, C. Pomelli, J. W. Ochterski, 
 R. L. Martin, K. Morokuma, V. G. Zakrzewski, G. A. Voth, 
 P. Salvador, J. J. Dannenberg, S. Dapprich, A. D. Daniels, 
 O. Farkas, J. B. Foresman, J. V. Ortiz, J. Cioslowski, 
 and D. J. Fox, Gaussian, Inc., Wallingford CT, 2013.
 
 ******************************************
 Gaussian 09:  ES64L-G09RevD.01 24-Apr-2013
                 8-Apr-2026 
 ******************************************
 ----------------------------------
 #p UB3LYP/6-311G(2df) Opt Pop=Full
 ----------------------------------
 1/14=-1,18=20,19=15,26=3,38=1/1,3;
 2/9=110,12=2,17=6,18=5,40=1/2;
 3/5=4,6=6,7=4,11=2,16=1,25=1,30=1,71=1,74=-5,116=2/1,2,3;
 4//1;
 5/5=2,38=5/2;
 6/7=3,28=1/1;
 7//1,2,3,16;
 1/14=-1,18=20,19=15,26=3/3(2);
 2/9=110/2;
 99//99;
 2/9=110/2;
 3/5=4,6=6,7=4,11=2,16=1,25=1,30=1,71=1,74=-5,116=2/1,2,3;
 4/5=5,16=3,69=1/1;
 5/5=2,38=5/2;
 7//1,2,3,16;
 1/14=-1,18=20,19=15,26=3/3(-5);
 2/9=110/2;
 6/7=3,19=2,28=1/1;
 99/9=1/99;
 Leave Link    1 at Wed Apr  8 12:49:21 2026, MaxMem=           0 cpu:         0.0
 (Enter /opt/g09/g09/l101.exe)
 ---------------------------------
 PO optymalizacja baza 6-311G(2df)
 ---------------------------------
 Symbolic Z-matrix:
 Charge =  0 Multiplicity = 2
 P                     0.        0.        0. 
 O                     0.        0.        1.5 
 
 NAtoms=      2 NQM=        2 NQMF=       0 NMMI=      0 NMMIF=      0
                NMic=       0 NMicF=      0.
                    Isotopes and Nuclear Properties:
 (Nuclear quadrupole moments (NQMom) in fm**2, nuclear magnetic moments (NMagM)
  in nuclear magnetons)

  Atom         1           2
 IAtWgt=          31          16
 AtmWgt=  30.9737634  15.9949146
 NucSpn=           1           0
 AtZEff=   0.0000000   0.0000000
 NQMom=    0.0000000   0.0000000
 NMagM=    1.1316000   0.0000000
 AtZNuc=  15.0000000   8.0000000
 Leave Link  101 at Wed Apr  8 12:49:21 2026, MaxMem=    33554432 cpu:         0.0
 (Enter /opt/g09/g09/l103.exe)

 GradGradGradGradGradGradGradGradGradGradGradGradGradGradGradGradGradGrad
 Berny optimization.
 Initialization pass.
                           ----------------------------
                           !    Initial Parameters    !
                           ! (Angstroms and Degrees)  !
 --------------------------                            --------------------------
 ! Name  Definition              Value          Derivative Info.                !
 --------------------------------------------------------------------------------
 ! R1    R(1,2)                  1.5            estimate D2E/DX2                !
 --------------------------------------------------------------------------------
 Trust Radius=3.00D-01 FncErr=1.00D-07 GrdErr=1.00D-06
 Number of steps in this run=     20 maximum allowed number of steps=    100.
 GradGradGradGradGradGradGradGradGradGradGradGradGradGradGradGradGradGrad

 Leave Link  103 at Wed Apr  8 12:49:21 2026, MaxMem=    33554432 cpu:         0.0
 (Enter /opt/g09/g09/l202.exe)
                          Input orientation:                          
 ---------------------------------------------------------------------
 Center     Atomic      Atomic             Coordinates (Angstroms)
 Number     Number       Type             X           Y           Z
 ---------------------------------------------------------------------
      1         15           0        0.000000    0.000000    0.000000
      2          8           0        0.000000    0.000000    1.500000
 ---------------------------------------------------------------------
 Stoichiometry    OP(2)
 Framework group  C*V[C*(OP)]
 Deg. of freedom     1
 Full point group                 C*V     NOp   4
 Largest Abelian subgroup         C2V     NOp   4
 Largest concise Abelian subgroup C1      NOp   1
                         Standard orientation:                         
 ---------------------------------------------------------------------
 Center     Atomic      Atomic             Coordinates (Angstroms)
 Number     Number       Type             X           Y           Z
 ---------------------------------------------------------------------
      1         15           0        0.000000    0.000000    0.521739
      2          8           0        0.000000    0.000000   -0.978261
 ---------------------------------------------------------------------
 Rotational constants (GHZ):      0.0000000     21.2944835     21.2944835
 Leave Link  202 at Wed Apr  8 12:49:21 2026, MaxMem=    33554432 cpu:         0.0
 (Enter /opt/g09/g09/l301.exe)
 Standard basis: 6-311G(2df) (5D, 7F)
 Ernie: Thresh=  0.10000D-02 Tol=  0.10000D-05 Strict=F.
 There are    36 symmetry adapted cartesian basis functions of A1  symmetry.
 There are     6 symmetry adapted cartesian basis functions of A2  symmetry.
 There are    18 symmetry adapted cartesian basis functions of B1  symmetry.
 There are    18 symmetry adapted cartesian basis functions of B2  symmetry.
 There are    30 symmetry adapted basis functions of A1  symmetry.
 There are     6 symmetry adapted basis functions of A2  symmetry.
 There are    16 symmetry adapted basis functions of B1  symmetry.
 There are    16 symmetry adapted basis functions of B2  symmetry.
    68 basis functions,   110 primitive gaussians,    78 cartesian basis functions
    12 alpha electrons       11 beta electrons
       nuclear repulsion energy        42.3341766872 Hartrees.
 IExCor=  402 DFT=T Ex+Corr=B3LYP ExCW=0 ScaHFX=  0.200000
 ScaDFX=  0.800000  0.720000  1.000000  0.810000 ScalE2=  1.000000  1.000000
 IRadAn=      0 IRanWt=     -1 IRanGd=            0 ICorTp=0 IEmpDi=  4
 NAtoms=    2 NActive=    2 NUniq=    2 SFac= 1.00D+00 NAtFMM=   60 NAOKFM=F Big=F
 Integral buffers will be    131072 words long.
 Raffenetti 2 integral format.
 Two-electron integral symmetry is turned on.
 Leave Link  301 at Wed Apr  8 12:49:21 2026, MaxMem=    33554432 cpu:         0.0
 (Enter /opt/g09/g09/l302.exe)
 NPDir=0 NMtPBC=     1 NCelOv=     1 NCel=       1 NClECP=     1 NCelD=      1
         NCelK=      1 NCelE2=     1 NClLst=     1 CellRange=     0.0.
 One-electron integrals computed using PRISM.
 NBasis=    68 RedAO= T EigKep=  1.24D-02  NBF=    30     6    16    16
 NBsUse=    68 1.00D-06 EigRej= -1.00D+00 NBFU=    30     6    16    16
 Precomputing XC quadrature grid using
 IXCGrd= 4 IRadAn=           0 IRanWt=          -1 IRanGd=           0 AccXCQ= 0.00D+00.
 Generated NRdTot=       0 NPtTot=           0 NUsed=           0 NTot=          32
 NSgBfM=    78    78    78    78    78 MxSgAt=     2 MxSgA2=     2.
 Leave Link  302 at Wed Apr  8 12:49:21 2026, MaxMem=    33554432 cpu:         0.1
 (Enter /opt/g09/g09/l303.exe)
 DipDrv:  MaxL=1.
 Leave Link  303 at Wed Apr  8 12:49:22 2026, MaxMem=    33554432 cpu:         0.0
 (Enter /opt/g09/g09/l401.exe)
 ExpMin= 6.85D-02 ExpMax= 7.75D+04 ExpMxC= 2.65D+03 IAcc=2 IRadAn=         4 AccDes= 0.00D+00
 Harris functional with IExCor=  402 and IRadAn=       4 diagonalized for initial guess.
 HarFok:  IExCor=  402 AccDes= 0.00D+00 IRadAn=         4 IDoV= 1 UseB2=F ITyADJ=14
 ICtDFT=  3500011 ScaDFX=  1.000000  1.000000  1.000000  1.000000
 FoFCou: FMM=F IPFlag=           0 FMFlag=      100000 FMFlg1=           0
         NFxFlg=           0 DoJE=T BraDBF=F KetDBF=T FulRan=T
         wScrn=  0.000000 ICntrl=     500 IOpCl=  0 I1Cent=   200000004 NGrid=           0
         NMat0=    1 NMatS0=      1 NMatT0=    0 NMatD0=    1 NMtDS0=    0 NMtDT0=    0
 Petite list used in FoFCou.
 Harris En= -416.608554659782    
 JPrj=0 DoOrth=F DoCkMO=F.
 Initial guess orbital symmetries:
 Alpha Orbitals:
       Occupied  (SG) (SG) (SG) (SG) (PI) (PI) (SG) (SG) (PI) (PI)
                 (SG) (PI)
       Virtual   (PI) (SG) (PI) (PI) (SG) (SG) (DLTA) (DLTA) (PI)
                 (PI) (SG) (PI) (PI) (SG) (SG) (DLTA) (DLTA) (PI)
                 (PI) (PHI) (PHI) (PI) (PI) (SG) (DLTA) (DLTA)
                 (SG) (DLTA) (DLTA) (SG) (PI) (PI) (PI) (PI) (SG)
                 (PI) (PI) (PHI) (PHI) (SG) (DLTA) (DLTA) (PI)
                 (PI) (SG) (DLTA) (DLTA) (PI) (PI) (SG) (SG) (PI)
                 (PI) (SG) (SG) (SG)
 Beta  Orbitals:
       Occupied  (SG) (SG) (SG) (SG) (PI) (PI) (SG) (SG) (PI) (PI)
                 (SG)
       Virtual   (PI) (PI) (SG) (PI) (PI) (SG) (SG) (DLTA) (DLTA)
                 (PI) (PI) (SG) (PI) (PI) (SG) (SG) (DLTA) (DLTA)
                 (PI) (PI) (PHI) (PHI) (PI) (PI) (SG) (DLTA) (DLTA)
                 (SG) (DLTA) (DLTA) (SG) (PI) (PI) (PI) (PI) (SG)
                 (PI) (PI) (PHI) (PHI) (SG) (DLTA) (DLTA) (PI)
                 (PI) (SG) (DLTA) (DLTA) (PI) (PI) (SG) (SG) (PI)
                 (PI) (SG) (SG) (SG)
 Initial guess <Sx>= 0.0000 <Sy>= 0.0000 <Sz>= 0.5000 <S**2>= 0.7500 S= 0.5000
 Leave Link  401 at Wed Apr  8 12:49:22 2026, MaxMem=    33554432 cpu:         0.1
 (Enter /opt/g09/g09/l502.exe)
 UHF open shell SCF:
 Using DIIS extrapolation, IDIIS=  1040.
 Integral symmetry usage will be decided dynamically.
 Keep R1 and R2 ints in memory in symmetry-blocked form, NReq=4757943.
 IVT=       37906 IEndB=       37906 NGot=    33554432 MDV=    32078897
 LenX=    32078897 LenY=    32072372
 Requested convergence on RMS density matrix=1.00D-08 within 128 cycles.
 Requested convergence on MAX density matrix=1.00D-06.
 Requested convergence on             energy=1.00D-06.
 No special actions if energy rises.
 FoFCou: FMM=F IPFlag=           0 FMFlag=           0 FMFlg1=           0
         NFxFlg=           0 DoJE=F BraDBF=F KetDBF=F FulRan=T
         wScrn=  0.000000 ICntrl=     600 IOpCl=  0 I1Cent=           0 NGrid=           0
         NMat0=    1 NMatS0=   2346 NMatT0=    0 NMatD0=    1 NMtDS0=    0 NMtDT0=    0
 Petite list used in FoFCou.
 Integral accuracy reduced to 1.0D-05 until final iterations.

 Cycle   1  Pass 0  IDiag  1:
 E= -416.400664725539    
 DIIS: error= 5.87D-02 at cycle   1 NSaved=   1.
 NSaved= 1 IEnMin= 1 EnMin= -416.400664725539     IErMin= 1 ErrMin= 5.87D-02
 ErrMax= 5.87D-02  0.00D+00 EMaxC= 1.00D-01 BMatC= 9.96D-01 BMatP= 9.96D-01
 IDIUse=3 WtCom= 4.13D-01 WtEn= 5.87D-01
 Coeff-Com:  0.100D+01
 Coeff-En:   0.100D+01
 Coeff:      0.100D+01
 Gap=    -0.038 Goal=   None    Shift=    0.000
 Gap=     0.046 Goal=   None    Shift=    0.000
 GapD=   -0.038 DampG=0.250 DampE=0.500 DampFc=0.2500 IDamp=-1.
 Damping current iteration by 2.50D-01
 RMSDP=1.40D-02 MaxDP=3.15D-01              OVMax= 7.43D-01

 Cycle   2  Pass 0  IDiag  1:
 E= -416.432005987700     Delta-E=       -0.031341262161 Rises=F Damp=T
 DIIS: error= 1.31D-02 at cycle   2 NSaved=   2.
 NSaved= 2 IEnMin= 2 EnMin= -416.432005987700     IErMin= 2 ErrMin= 1.31D-02
 ErrMax= 1.31D-02  0.00D+00 EMaxC= 1.00D-01 BMatC= 4.33D-02 BMatP= 9.96D-01
 IDIUse=3 WtCom= 8.69D-01 WtEn= 1.31D-01
 Coeff-Com: -0.176D-01 0.102D+01
 Coeff-En:   0.408D+00 0.592D+00
 Coeff:      0.383D-01 0.962D+00
 Gap=     0.073 Goal=   None    Shift=    0.000
 Gap=     0.085 Goal=   None    Shift=    0.000
 RMSDP=2.15D-03 MaxDP=3.98D-02 DE=-3.13D-02 OVMax= 6.37D-01

 Cycle   3  Pass 0  IDiag  1:
 E= -416.582841530225     Delta-E=       -0.150835542525 Rises=F Damp=F
 DIIS: error= 1.52D-02 at cycle   3 NSaved=   3.
 NSaved= 3 IEnMin= 3 EnMin= -416.582841530225     IErMin= 2 ErrMin= 1.31D-02
 ErrMax= 1.52D-02  0.00D+00 EMaxC= 1.00D-01 BMatC= 3.45D-02 BMatP= 4.33D-02
 IDIUse=3 WtCom= 8.48D-01 WtEn= 1.52D-01
 Coeff-Com: -0.132D+00 0.374D+00 0.758D+00
 Coeff-En:   0.000D+00 0.000D+00 0.100D+01
 Coeff:     -0.112D+00 0.317D+00 0.795D+00
 Gap=     0.068 Goal=   None    Shift=    0.000
 Gap=     0.231 Goal=   None    Shift=    0.000
 RMSDP=1.40D-03 MaxDP=2.68D-02 DE=-1.51D-01 OVMax= 6.43D-02

 Cycle   4  Pass 0  IDiag  1:
 E= -416.592850427981     Delta-E=       -0.010008897756 Rises=F Damp=F
 DIIS: error= 3.91D-03 at cycle   4 NSaved=   4.
 NSaved= 4 IEnMin= 4 EnMin= -416.592850427981     IErMin= 4 ErrMin= 3.91D-03
 ErrMax= 3.91D-03  0.00D+00 EMaxC= 1.00D-01 BMatC= 3.52D-03 BMatP= 3.45D-02
 IDIUse=3 WtCom= 9.61D-01 WtEn= 3.91D-02
 Coeff-Com:  0.577D-01-0.942D-01 0.212D-01 0.102D+01
 Coeff-En:   0.000D+00 0.000D+00 0.335D-01 0.967D+00
 Coeff:      0.554D-01-0.905D-01 0.217D-01 0.101D+01
 Gap=     0.074 Goal=   None    Shift=    0.000
 Gap=     0.240 Goal=   None    Shift=    0.000
 RMSDP=1.59D-04 MaxDP=4.04D-03 DE=-1.00D-02 OVMax= 5.62D-03

 Cycle   5  Pass 0  IDiag  1:
 E= -416.593355745966     Delta-E=       -0.000505317985 Rises=F Damp=F
 DIIS: error= 2.30D-03 at cycle   5 NSaved=   5.
 NSaved= 5 IEnMin= 5 EnMin= -416.593355745966     IErMin= 5 ErrMin= 2.30D-03
 ErrMax= 2.30D-03  0.00D+00 EMaxC= 1.00D-01 BMatC= 8.29D-04 BMatP= 3.52D-03
 IDIUse=3 WtCom= 9.77D-01 WtEn= 2.30D-02
 Coeff-Com:  0.200D-01-0.320D-01 0.502D-01 0.142D-01 0.948D+00
 Coeff-En:   0.000D+00 0.000D+00 0.000D+00 0.000D+00 0.100D+01
 Coeff:      0.195D-01-0.312D-01 0.491D-01 0.139D-01 0.949D+00
 Gap=     0.073 Goal=   None    Shift=    0.000
 Gap=     0.241 Goal=   None    Shift=    0.000
 RMSDP=1.09D-04 MaxDP=2.24D-03 DE=-5.05D-04 OVMax= 6.37D-03

 Cycle   6  Pass 0  IDiag  1:
 E= -416.593551399372     Delta-E=       -0.000195653405 Rises=F Damp=F
 DIIS: error= 5.03D-04 at cycle   6 NSaved=   6.
 NSaved= 6 IEnMin= 6 EnMin= -416.593551399372     IErMin= 6 ErrMin= 5.03D-04
 ErrMax= 5.03D-04  0.00D+00 EMaxC= 1.00D-01 BMatC= 3.22D-05 BMatP= 8.29D-04
 IDIUse=3 WtCom= 9.95D-01 WtEn= 5.03D-03
 Coeff-Com: -0.123D-02 0.166D-02 0.252D-01-0.845D-01 0.105D+00 0.954D+00
 Coeff-En:   0.000D+00 0.000D+00 0.000D+00 0.000D+00 0.000D+00 0.100D+01
 Coeff:     -0.122D-02 0.165D-02 0.250D-01-0.841D-01 0.104D+00 0.954D+00
 Gap=     0.073 Goal=   None    Shift=    0.000
 Gap=     0.241 Goal=   None    Shift=    0.000
 RMSDP=3.27D-05 MaxDP=7.22D-04 DE=-1.96D-04 OVMax= 2.23D-03

 Cycle   7  Pass 0  IDiag  1:
 E= -416.593559885856     Delta-E=       -0.000008486484 Rises=F Damp=F
 DIIS: error= 9.14D-05 at cycle   7 NSaved=   7.
 NSaved= 7 IEnMin= 7 EnMin= -416.593559885856     IErMin= 7 ErrMin= 9.14D-05
 ErrMax= 9.14D-05  0.00D+00 EMaxC= 1.00D-01 BMatC= 1.04D-06 BMatP= 3.22D-05
 IDIUse=1 WtCom= 1.00D+00 WtEn= 0.00D+00
 Coeff-Com: -0.117D-02 0.161D-02 0.761D-04-0.725D-02-0.306D-01 0.178D+00
 Coeff-Com:  0.860D+00
 Coeff:     -0.117D-02 0.161D-02 0.761D-04-0.725D-02-0.306D-01 0.178D+00
 Coeff:      0.860D+00
 Gap=     0.073 Goal=   None    Shift=    0.000
 Gap=     0.241 Goal=   None    Shift=    0.000
 RMSDP=6.05D-06 MaxDP=1.24D-04 DE=-8.49D-06 OVMax= 3.47D-04

 Initial convergence to 1.0D-05 achieved.  Increase integral accuracy.
 Cycle   8  Pass 1  IDiag  1:
 E= -416.593547265737     Delta-E=        0.000012620119 Rises=F Damp=F
 DIIS: error= 1.33D-04 at cycle   1 NSaved=   1.
 NSaved= 1 IEnMin= 1 EnMin= -416.593547265737     IErMin= 1 ErrMin= 1.33D-04
 ErrMax= 1.33D-04  0.00D+00 EMaxC= 1.00D-01 BMatC= 1.82D-06 BMatP= 1.82D-06
 IDIUse=3 WtCom= 9.99D-01 WtEn= 1.33D-03
 Coeff-Com:  0.100D+01
 Coeff-En:   0.100D+01
 Coeff:      0.100D+01
 Gap=     0.073 Goal=   None    Shift=    0.000
 Gap=     0.241 Goal=   None    Shift=    0.000
 RMSDP=6.05D-06 MaxDP=1.24D-04 DE= 1.26D-05 OVMax= 6.21D-04

 Cycle   9  Pass 1  IDiag  1:
 E= -416.593547046198     Delta-E=        0.000000219539 Rises=F Damp=F
 DIIS: error= 1.13D-04 at cycle   2 NSaved=   2.
 NSaved= 2 IEnMin= 1 EnMin= -416.593547265737     IErMin= 2 ErrMin= 1.13D-04
 ErrMax= 1.13D-04  0.00D+00 EMaxC= 1.00D-01 BMatC= 2.11D-06 BMatP= 1.82D-06
 IDIUse=3 WtCom= 4.85D-01 WtEn= 5.15D-01
 Coeff-Com:  0.529D+00 0.471D+00
 Coeff-En:   0.705D+00 0.295D+00
 Coeff:      0.620D+00 0.380D+00
 Gap=     0.073 Goal=   None    Shift=    0.000
 Gap=     0.241 Goal=   None    Shift=    0.000
 RMSDP=7.54D-06 MaxDP=1.64D-04 DE= 2.20D-07 OVMax= 5.07D-04

 Cycle  10  Pass 1  IDiag  1:
 E= -416.593547373402     Delta-E=       -0.000000327204 Rises=F Damp=F
 DIIS: error= 5.82D-05 at cycle   3 NSaved=   3.
 NSaved= 3 IEnMin= 3 EnMin= -416.593547373402     IErMin= 3 ErrMin= 5.82D-05
 ErrMax= 5.82D-05  0.00D+00 EMaxC= 1.00D-01 BMatC= 5.49D-07 BMatP= 1.82D-06
 IDIUse=1 WtCom= 1.00D+00 WtEn= 0.00D+00
 Coeff-Com: -0.241D-01 0.338D+00 0.686D+00
 Coeff:     -0.241D-01 0.338D+00 0.686D+00
 Gap=     0.073 Goal=   None    Shift=    0.000
 Gap=     0.241 Goal=   None    Shift=    0.000
 RMSDP=2.82D-06 MaxDP=8.29D-05 DE=-3.27D-07 OVMax= 2.55D-04

 Cycle  11  Pass 1  IDiag  1:
 E= -416.593547498113     Delta-E=       -0.000000124710 Rises=F Damp=F
 DIIS: error= 8.49D-06 at cycle   4 NSaved=   4.
 NSaved= 4 IEnMin= 4 EnMin= -416.593547498113     IErMin= 4 ErrMin= 8.49D-06
 ErrMax= 8.49D-06  0.00D+00 EMaxC= 1.00D-01 BMatC= 6.81D-09 BMatP= 5.49D-07
 IDIUse=1 WtCom= 1.00D+00 WtEn= 0.00D+00
 Coeff-Com: -0.102D-01 0.102D-01 0.188D-01 0.981D+00
 Coeff:     -0.102D-01 0.102D-01 0.188D-01 0.981D+00
 Gap=     0.073 Goal=   None    Shift=    0.000
 Gap=     0.241 Goal=   None    Shift=    0.000
 RMSDP=1.21D-06 MaxDP=3.26D-05 DE=-1.25D-07 OVMax= 9.43D-05

 Cycle  12  Pass 1  IDiag  1:
 E= -416.593547507770     Delta-E=       -0.000000009658 Rises=F Damp=F
 DIIS: error= 6.86D-06 at cycle   5 NSaved=   5.
 NSaved= 5 IEnMin= 5 EnMin= -416.593547507770     IErMin= 5 ErrMin= 6.86D-06
 ErrMax= 6.86D-06  0.00D+00 EMaxC= 1.00D-01 BMatC= 2.94D-09 BMatP= 6.81D-09
 IDIUse=1 WtCom= 1.00D+00 WtEn= 0.00D+00
 Coeff-Com:  0.179D-01-0.203D+00-0.366D+00-0.336D+00 0.189D+01
 Coeff:      0.179D-01-0.203D+00-0.366D+00-0.336D+00 0.189D+01
 Gap=     0.073 Goal=   None    Shift=    0.000
 Gap=     0.241 Goal=   None    Shift=    0.000
 RMSDP=2.07D-06 MaxDP=6.40D-05 DE=-9.66D-09 OVMax= 1.83D-04

 Cycle  13  Pass 1  IDiag  1:
 E= -416.593547515107     Delta-E=       -0.000000007337 Rises=F Damp=F
 DIIS: error= 5.82D-07 at cycle   6 NSaved=   6.
 NSaved= 6 IEnMin= 6 EnMin= -416.593547515107     IErMin= 6 ErrMin= 5.82D-07
 ErrMax= 5.82D-07  0.00D+00 EMaxC= 1.00D-01 BMatC= 3.46D-11 BMatP= 2.94D-09
 IDIUse=1 WtCom= 1.00D+00 WtEn= 0.00D+00
 Coeff-Com: -0.725D-03 0.138D-01 0.218D-01-0.250D-01-0.108D+00 0.110D+01
 Coeff:     -0.725D-03 0.138D-01 0.218D-01-0.250D-01-0.108D+00 0.110D+01
 Gap=     0.073 Goal=   None    Shift=    0.000
 Gap=     0.241 Goal=   None    Shift=    0.000
 RMSDP=1.48D-07 MaxDP=4.12D-06 DE=-7.34D-09 OVMax= 1.18D-05

 Cycle  14  Pass 1  IDiag  1:
 E= -416.593547515155     Delta-E=       -0.000000000048 Rises=F Damp=F
 DIIS: error= 2.16D-07 at cycle   7 NSaved=   7.
 NSaved= 7 IEnMin= 7 EnMin= -416.593547515155     IErMin= 7 ErrMin= 2.16D-07
 ErrMax= 2.16D-07  0.00D+00 EMaxC= 1.00D-01 BMatC= 6.07D-12 BMatP= 3.46D-11
 IDIUse=1 WtCom= 1.00D+00 WtEn= 0.00D+00
 Coeff-Com: -0.109D-02 0.133D-01 0.215D-01 0.224D-01-0.121D+00 0.410D-01
 Coeff-Com:  0.102D+01
 Coeff:     -0.109D-02 0.133D-01 0.215D-01 0.224D-01-0.121D+00 0.410D-01
 Coeff:      0.102D+01
 Gap=     0.073 Goal=   None    Shift=    0.000
 Gap=     0.241 Goal=   None    Shift=    0.000
 RMSDP=2.99D-08 MaxDP=7.29D-07 DE=-4.77D-11 OVMax= 2.25D-06

 Cycle  15  Pass 1  IDiag  1:
 E= -416.593547515158     Delta-E=       -0.000000000004 Rises=F Damp=F
 DIIS: error= 6.34D-08 at cycle   8 NSaved=   8.
 NSaved= 8 IEnMin= 8 EnMin= -416.593547515158     IErMin= 8 ErrMin= 6.34D-08
 ErrMax= 6.34D-08  0.00D+00 EMaxC= 1.00D-01 BMatC= 5.77D-13 BMatP= 6.07D-12
 IDIUse=1 WtCom= 1.00D+00 WtEn= 0.00D+00
 Coeff-Com: -0.229D-03 0.206D-02 0.374D-02 0.910D-02-0.209D-01-0.123D+00
 Coeff-Com:  0.215D+00 0.914D+00
 Coeff:     -0.229D-03 0.206D-02 0.374D-02 0.910D-02-0.209D-01-0.123D+00
 Coeff:      0.215D+00 0.914D+00
 Gap=     0.073 Goal=   None    Shift=    0.000
 Gap=     0.241 Goal=   None    Shift=    0.000
 RMSDP=9.34D-09 MaxDP=1.80D-07 DE=-3.58D-12 OVMax= 6.32D-07

 SCF Done:  E(UB3LYP) =  -416.593547515     A.U. after   15 cycles
            NFock= 15  Conv=0.93D-08     -V/T= 2.0018
 <Sx>= 0.0000 <Sy>= 0.0000 <Sz>= 0.5000 <S**2>= 0.7544 S= 0.5022
 <L.S>= 0.000000000000E+00
 KE= 4.158613541372D+02 PE=-1.075416472580D+03 EE= 2.006273942404D+02
 Annihilation of the first spin contaminant:
 S**2 before annihilation     0.7544,   after     0.7500
 Leave Link  502 at Wed Apr  8 12:49:22 2026, MaxMem=    33554432 cpu:         0.4
 (Enter /opt/g09/g09/l601.exe)
 Copying SCF densities to generalized density rwf, IOpCl= 1 IROHF=0.

 **********************************************************************

            Population analysis using the SCF density.

 **********************************************************************

 Orbital symmetries:
 Alpha Orbitals:
       Occupied  (SG) (SG) (SG) (PI) (PI) (SG) (SG) (SG) (PI) (SG)
                 (PI) (PI)
       Virtual   (PI) (SG) (PI) (PI) (SG) (?A) (?A) (?A) (PI) (PI)
                 (SG) (PI) (PI) (SG) (?B) (?B) (?B) (?C) (?C) (?C)
                 (?C) (PI) (PI) (SG) (?D) (?D) (?D) (DLTA) (DLTA)
                 (PI) (PI) (SG) (PI) (PI) (SG) (PI) (PI) (PHI)
                 (PHI) (?E) (?E) (?E) (PI) (PI) (SG) (DLTA) (DLTA)
                 (SG) (PI) (PI) (SG) (PI) (PI) (SG) (SG) (SG)
 Beta  Orbitals:
       Occupied  (SG) (SG) (SG) (PI) (SG) (PI) (SG) (SG) (PI) (SG)
                 (PI)
       Virtual   (PI) (PI) (SG) (PI) (PI) (?A) (?A) (?A) (?A) (PI)
                 (PI) (SG) (PI) (SG) (PI) (?B) (?B) (?B) (?C) (?C)
                 (?C) (?C) (PI) (PI) (?D) (?D) (?D) (?D) (?D) (?D)
                 (PI) (?D) (PI) (PI) (PI) (SG) (?C) (?C) (?C) (?C)
                 (?E) (?E) (?E) (PI) (PI) (SG) (DLTA) (DLTA) (SG)
                 (PI) (PI) (SG) (PI) (PI) (SG) (SG) (SG)
 Unable to determine electronic state:  partially filled degenerate orbitals.
 Alpha  occ. eigenvalues --  -77.11781 -19.15650  -6.60997  -4.77407  -4.77107
 Alpha  occ. eigenvalues --   -4.76724  -1.01930  -0.56170  -0.40556  -0.39225
 Alpha  occ. eigenvalues --   -0.38974  -0.20237
 Alpha virt. eigenvalues --   -0.12932   0.01084   0.15330   0.15655   0.20818
 Alpha virt. eigenvalues --    0.27595   0.29188   0.29479   0.39247   0.39867
 Alpha virt. eigenvalues --    0.61566   0.82014   0.82211   0.82631   1.14163
 Alpha virt. eigenvalues --    1.17687   1.17859   1.28540   1.28582   1.32494
 Alpha virt. eigenvalues --    1.32505   1.40163   1.40248   1.51066   1.66709
 Alpha virt. eigenvalues --    1.66802   1.67732   1.83231   1.83341   1.87574
 Alpha virt. eigenvalues --    1.88092   1.88295   2.25548   2.25753   2.57993
 Alpha virt. eigenvalues --    4.79215   4.79804   5.00251   5.00255   5.04880
 Alpha virt. eigenvalues --    5.07077   5.07143   5.17659   5.17976   5.45875
 Alpha virt. eigenvalues --    6.72338   6.72451   7.03508   7.08149   7.08524
 Alpha virt. eigenvalues --    7.56966  13.70046  13.70184  14.12493  49.78664
 Alpha virt. eigenvalues --  163.32610
  Beta  occ. eigenvalues --  -77.11433 -19.14862  -6.60670  -4.77224  -4.76554
  Beta  occ. eigenvalues --   -4.75944  -1.00416  -0.53472  -0.38405  -0.37669
  Beta  occ. eigenvalues --   -0.36112
  Beta virt. eigenvalues --   -0.11986  -0.08840   0.01786   0.15839   0.17282
  Beta virt. eigenvalues --    0.21478   0.28400   0.32603   0.32723   0.40113
  Beta virt. eigenvalues --    0.42705   0.62454   0.82471   0.83411   0.83790
  Beta virt. eigenvalues --    1.14689   1.19314   1.19385   1.31480   1.31803
  Beta virt. eigenvalues --    1.33313   1.35464   1.40644   1.43384   1.52153
  Beta virt. eigenvalues --    1.68302   1.68432   1.68649   1.85054   1.85098
  Beta virt. eigenvalues --    1.87545   1.89352   1.89662   2.25747   2.27707
  Beta virt. eigenvalues --    2.58611   4.80395   4.82525   5.01998   5.02000
  Beta virt. eigenvalues --    5.05485   5.08240   5.08495   5.17889   5.19474
  Beta virt. eigenvalues --    5.46471   6.75277   6.75295   7.04453   7.08953
  Beta virt. eigenvalues --    7.10919   7.57881  13.70317  13.71773  14.12758
  Beta virt. eigenvalues --   49.79443 163.32936
     Alpha Molecular Orbital Coefficients:
                           1         2         3         4         5
                           O         O         O         O         O
     Eigenvalues --   -77.11781 -19.15650  -6.60997  -4.77407  -4.77107
   1 1   P  1S          0.41906   0.00000  -0.12007   0.00000   0.00000
   2        2S          0.64597  -0.00001  -0.31240   0.00000   0.00000
   3        3S          0.01425   0.00007   0.51238   0.00000   0.00000
   4        4S         -0.00460  -0.00030   0.59436   0.00000   0.00000
   5        5S          0.00201   0.00108   0.05730   0.00000   0.00000
   6        6S          0.00060   0.00276   0.00341   0.00000   0.00000
   7        7PX         0.00000   0.00000   0.00000   0.40781   0.00000
   8        7PY         0.00000   0.00000   0.00000   0.00000   0.40865
   9        7PZ        -0.00008   0.00001  -0.00137   0.00000   0.00000
  10        8PX         0.00000   0.00000   0.00000   0.68100   0.00000
  11        8PY         0.00000   0.00000   0.00000   0.00000   0.68071
  12        8PZ         0.00003   0.00000  -0.00309   0.00000   0.00000
  13        9PX         0.00000   0.00000   0.00000   0.05592   0.00000
  14        9PY         0.00000   0.00000   0.00000   0.00000   0.05492
  15        9PZ         0.00019  -0.00015   0.00433   0.00000   0.00000
  16       10PX         0.00000   0.00000   0.00000  -0.00363   0.00000
  17       10PY         0.00000   0.00000   0.00000   0.00000  -0.00313
  18       10PZ        -0.00178  -0.00237  -0.02468   0.00000   0.00000
  19       11PX         0.00000   0.00000   0.00000   0.00090   0.00000
  20       11PY         0.00000   0.00000   0.00000   0.00000   0.00077
  21       11PZ        -0.00004  -0.00093  -0.00032   0.00000   0.00000
  22       12D 0        0.00005   0.00013  -0.00048   0.00000   0.00000
  23       12D+1        0.00000   0.00000   0.00000  -0.00025   0.00000
  24       12D-1        0.00000   0.00000   0.00000   0.00000  -0.00023
  25       12D+2        0.00000   0.00000   0.00046   0.00000   0.00000
  26       12D-2        0.00000   0.00000   0.00000   0.00000   0.00000
  27       13D 0        0.00090   0.00077   0.01246   0.00000   0.00000
  28       13D+1        0.00000   0.00000   0.00000   0.00040   0.00000
  29       13D-1        0.00000   0.00000   0.00000   0.00000   0.00049
  30       13D+2        0.00000   0.00000  -0.00022   0.00000   0.00000
  31       13D-2        0.00000   0.00000   0.00000   0.00000   0.00000
  32       14F 0       -0.00035   0.00055  -0.00476   0.00000   0.00000
  33       14F+1        0.00000   0.00000   0.00000  -0.00025   0.00000
  34       14F-1        0.00000   0.00000   0.00000   0.00000  -0.00025
  35       14F+2        0.00000   0.00000  -0.00006   0.00000   0.00000
  36       14F-2        0.00000   0.00000   0.00000   0.00000   0.00000
  37       14F+3        0.00000   0.00000   0.00000  -0.00001   0.00000
  38       14F-3        0.00000   0.00000   0.00000   0.00000   0.00002
  39 2   O  1S          0.00000   0.55120  -0.00014   0.00000   0.00000
  40        2S          0.00000   0.46994  -0.00017   0.00000   0.00000
  41        2PX         0.00000   0.00000   0.00000   0.00006   0.00000
  42        2PY         0.00000   0.00000   0.00000   0.00000   0.00009
  43        2PZ         0.00011   0.00100   0.00087   0.00000   0.00000
  44        3S          0.00020   0.01307   0.00202   0.00000   0.00000
  45        3PX         0.00000   0.00000   0.00000   0.00022   0.00000
  46        3PY         0.00000   0.00000   0.00000   0.00000   0.00026
  47        3PZ        -0.00038   0.00031  -0.00371   0.00000   0.00000
  48        4S         -0.00217  -0.00817  -0.02799   0.00000   0.00000
  49        4PX         0.00000   0.00000   0.00000   0.00042   0.00000
  50        4PY         0.00000   0.00000   0.00000   0.00000   0.00042
  51        4PZ        -0.00122  -0.00281  -0.01646   0.00000   0.00000
  52        5D 0        0.00006   0.00021   0.00039   0.00000   0.00000
  53        5D+1        0.00000   0.00000   0.00000   0.00003   0.00000
  54        5D-1        0.00000   0.00000   0.00000   0.00000   0.00003
  55        5D+2        0.00000  -0.00013   0.00000   0.00000   0.00000
  56        5D-2        0.00000   0.00000   0.00000   0.00000   0.00000
  57        6D 0       -0.00046  -0.00076  -0.00413   0.00000   0.00000
  58        6D+1        0.00000   0.00000   0.00000   0.00032   0.00000
  59        6D-1        0.00000   0.00000   0.00000   0.00000   0.00032
  60        6D+2        0.00000   0.00001   0.00002   0.00000   0.00000
  61        6D-2        0.00000   0.00000   0.00000   0.00000   0.00000
  62        7F 0       -0.00005  -0.00005   0.00054   0.00000   0.00000
  63        7F+1        0.00000   0.00000   0.00000   0.00008   0.00000
  64        7F-1        0.00000   0.00000   0.00000   0.00000   0.00009
  65        7F+2        0.00000   0.00000   0.00000   0.00000   0.00000
  66        7F-2        0.00000   0.00000   0.00000   0.00000   0.00000
  67        7F+3        0.00000   0.00000   0.00000   0.00000   0.00000
  68        7F-3        0.00000   0.00000   0.00000   0.00000   0.00000
                           6         7         8         9        10
                           O         O         O         O         O
     Eigenvalues --    -4.76724  -1.01930  -0.56170  -0.40556  -0.39225
   1 1   P  1S         -0.00043   0.01302   0.03101   0.00000   0.00981
   2        2S         -0.00114   0.03581   0.08550   0.00000   0.02692
   3        3S          0.00184  -0.07522  -0.18208   0.00000  -0.05620
   4        4S          0.00229  -0.13060  -0.33465   0.00000  -0.11376
   5        5S          0.00053   0.20373   0.58433   0.00000   0.17805
   6        6S          0.00199   0.05422   0.36699   0.00000   0.39777
   7        7PX         0.00000   0.00000   0.00000   0.00000   0.00000
   8        7PY         0.00000   0.00000   0.00000  -0.05738   0.00000
   9        7PZ         0.40823   0.03652  -0.00902   0.00000  -0.07743
  10        8PX         0.00000   0.00000   0.00000   0.00000   0.00000
  11        8PY         0.00000   0.00000   0.00000  -0.09857   0.00000
  12        8PZ         0.68061   0.06382  -0.01470   0.00000  -0.13288
  13        9PX         0.00000   0.00000   0.00000   0.00000   0.00000
  14        9PY         0.00000   0.00000   0.00000   0.11682   0.00000
  15        9PZ         0.05589  -0.07112   0.00379   0.00000   0.16852
  16       10PX         0.00000   0.00000   0.00000   0.00000   0.00000
  17       10PY         0.00000   0.00000   0.00000   0.27641   0.00000
  18       10PZ        -0.00562  -0.06215   0.12830   0.00000   0.28179
  19       11PX         0.00000   0.00000   0.00000   0.00000   0.00000
  20       11PY         0.00000   0.00000   0.00000   0.11136   0.00000
  21       11PZ         0.00060  -0.00035   0.03989   0.00000   0.04632
  22       12D 0       -0.00076   0.03145  -0.00165   0.00000  -0.04164
  23       12D+1        0.00000   0.00000   0.00000   0.00000   0.00000
  24       12D-1        0.00000   0.00000   0.00000  -0.03077   0.00000
  25       12D+2       -0.00005  -0.00012  -0.00197   0.00000  -0.00198
  26       12D-2        0.00000   0.00000   0.00000   0.00000   0.00000
  27       13D 0        0.00129   0.02810  -0.04788   0.00000  -0.02815
  28       13D+1        0.00000   0.00000   0.00000   0.00000   0.00000
  29       13D-1        0.00000   0.00000   0.00000  -0.05141   0.00000
  30       13D+2       -0.00007   0.00039  -0.00762   0.00000  -0.00792
  31       13D-2        0.00000   0.00000   0.00000   0.00000   0.00000
  32       14F 0       -0.00027  -0.01445   0.00406   0.00000   0.00405
  33       14F+1        0.00000   0.00000   0.00000   0.00000   0.00000
  34       14F-1        0.00000   0.00000   0.00000   0.01471   0.00000
  35       14F+2        0.00002  -0.00150  -0.00319   0.00000  -0.00132
  36       14F-2        0.00000   0.00000   0.00000   0.00000   0.00000
  37       14F+3        0.00000   0.00000   0.00000   0.00000   0.00000
  38       14F-3        0.00000   0.00000   0.00000   0.00034   0.00000
  39 2   O  1S          0.00046  -0.11513   0.05172   0.00000  -0.01991
  40        2S          0.00066  -0.18472   0.08404   0.00000  -0.03234
  41        2PX         0.00000   0.00000   0.00000   0.00000   0.00000
  42        2PY         0.00000   0.00000   0.00000   0.25868   0.00000
  43        2PZ        -0.00062   0.05849   0.11963   0.00000  -0.23474
  44        3S         -0.00131   0.53614  -0.26094   0.00000   0.10478
  45        3PX         0.00000   0.00000   0.00000   0.00000   0.00000
  46        3PY         0.00000   0.00000   0.00000   0.37366   0.00000
  47        3PZ        -0.00151   0.09509   0.17510   0.00000  -0.33868
  48        4S         -0.00360   0.39234  -0.21444   0.00000   0.10624
  49        4PX         0.00000   0.00000   0.00000   0.00000   0.00000
  50        4PY         0.00000   0.00000   0.00000   0.32633   0.00000
  51        4PZ        -0.00187   0.05890   0.17203   0.00000  -0.31479
  52        5D 0       -0.00029   0.00329   0.00374   0.00000  -0.00605
  53        5D+1        0.00000   0.00000   0.00000   0.00000   0.00000
  54        5D-1        0.00000   0.00000   0.00000   0.00553   0.00000
  55        5D+2        0.00000  -0.00080   0.00038   0.00000  -0.00017
  56        5D-2        0.00000   0.00000   0.00000   0.00000   0.00000
  57        6D 0       -0.00057   0.01976   0.02243   0.00000  -0.03149
  58        6D+1        0.00000   0.00000   0.00000   0.00000   0.00000
  59        6D-1        0.00000   0.00000   0.00000   0.02687   0.00000
  60        6D+2        0.00000   0.00033   0.00088   0.00000  -0.00048
  61        6D-2        0.00000   0.00000   0.00000   0.00000   0.00000
  62        7F 0       -0.00036   0.00413   0.00129   0.00000  -0.00511
  63        7F+1        0.00000   0.00000   0.00000   0.00000   0.00000
  64        7F-1        0.00000   0.00000   0.00000   0.00528   0.00000
  65        7F+2        0.00000   0.00031   0.00001   0.00000  -0.00015
  66        7F-2        0.00000   0.00000   0.00000   0.00000   0.00000
  67        7F+3        0.00000   0.00000   0.00000   0.00000   0.00000
  68        7F-3        0.00000   0.00000   0.00000   0.00019   0.00000
                          11        12        13        14        15
                           O         O         V         V         V
     Eigenvalues --    -0.38974  -0.20237  -0.12932   0.01084   0.15330
   1 1   P  1S          0.00000   0.00000   0.00000  -0.00690   0.00000
   2        2S          0.00000   0.00000   0.00000  -0.01914   0.00000
   3        3S          0.00000   0.00000   0.00000   0.04208   0.00000
   4        4S          0.00000   0.00000   0.00000   0.07772   0.00000
   5        5S          0.00000   0.00000   0.00000  -0.10258   0.00000
   6        6S          0.00000   0.00000   0.00000  -0.43943   0.00000
   7        7PX        -0.05837   0.00000  -0.08950   0.00000   0.00000
   8        7PY         0.00000  -0.09403   0.00000   0.00000   0.07724
   9        7PZ         0.00000   0.00000   0.00000  -0.04120   0.00000
  10        8PX        -0.10003   0.00000  -0.15084   0.00000   0.00000
  11        8PY         0.00000  -0.15870   0.00000   0.00000   0.11995
  12        8PZ         0.00000   0.00000   0.00000  -0.07015   0.00000
  13        9PX         0.11648   0.00000   0.17300   0.00000   0.00000
  14        9PY         0.00000   0.18548   0.00000   0.00000  -0.09697
  15        9PZ         0.00000   0.00000   0.00000   0.08039   0.00000
  16       10PX         0.28366   0.00000   0.54986   0.00000   0.00000
  17       10PY         0.00000   0.58236   0.00000   0.00000  -0.87746
  18       10PZ         0.00000   0.00000   0.00000   0.29212   0.00000
  19       11PX         0.12114   0.00000   0.38902   0.00000   0.00000
  20       11PY         0.00000   0.33905   0.00000   0.00000   1.21506
  21       11PZ         0.00000   0.00000   0.00000   0.88510   0.00000
  22       12D 0        0.00000   0.00000   0.00000   0.08799   0.00000
  23       12D+1       -0.03374   0.00000   0.03458   0.00000   0.00000
  24       12D-1        0.00000   0.03604   0.00000   0.00000   0.00299
  25       12D+2        0.00000   0.00000   0.00000   0.00045   0.00000
  26       12D-2        0.00000   0.00000   0.00000   0.00000   0.00000
  27       13D 0        0.00000   0.00000   0.00000   0.21364   0.00000
  28       13D+1       -0.06719   0.00000   0.10109   0.00000   0.00000
  29       13D-1        0.00000   0.10791   0.00000   0.00000  -0.00510
  30       13D+2        0.00000   0.00000   0.00000  -0.00018   0.00000
  31       13D-2        0.00000   0.00000   0.00000   0.00000   0.00000
  32       14F 0        0.00000   0.00000   0.00000  -0.00837   0.00000
  33       14F+1        0.01700   0.00000  -0.01552   0.00000   0.00000
  34       14F-1        0.00000  -0.01741   0.00000   0.00000   0.00521
  35       14F+2        0.00000   0.00000   0.00000   0.00123   0.00000
  36       14F-2        0.00000   0.00000   0.00000   0.00000   0.00000
  37       14F+3       -0.00033   0.00000  -0.00244   0.00000   0.00000
  38       14F-3        0.00000  -0.00075   0.00000   0.00000   0.00024
  39 2   O  1S          0.00000   0.00000   0.00000  -0.03388   0.00000
  40        2S          0.00000   0.00000   0.00000  -0.05499   0.00000
  41        2PX         0.24870   0.00000  -0.17460   0.00000   0.00000
  42        2PY         0.00000  -0.17405   0.00000   0.00000  -0.00170
  43        2PZ         0.00000   0.00000   0.00000   0.09057   0.00000
  44        3S          0.00000   0.00000   0.00000   0.15259   0.00000
  45        3PX         0.35934   0.00000  -0.23945   0.00000   0.00000
  46        3PY         0.00000  -0.23928   0.00000   0.00000   0.01023
  47        3PZ         0.00000   0.00000   0.00000   0.14892   0.00000
  48        4S          0.00000   0.00000   0.00000   0.53973   0.00000
  49        4PX         0.32771   0.00000  -0.31209   0.00000   0.00000
  50        4PY         0.00000  -0.29010   0.00000   0.00000  -0.05046
  51        4PZ         0.00000   0.00000   0.00000   0.15216   0.00000
  52        5D 0        0.00000   0.00000   0.00000   0.00146   0.00000
  53        5D+1        0.00569   0.00000   0.00052   0.00000   0.00000
  54        5D-1        0.00000   0.00043   0.00000   0.00000  -0.00338
  55        5D+2        0.00000   0.00000   0.00000  -0.00015   0.00000
  56        5D-2        0.00000   0.00000   0.00000   0.00000   0.00000
  57        6D 0        0.00000   0.00000   0.00000   0.01438   0.00000
  58        6D+1        0.02878   0.00000  -0.00180   0.00000   0.00000
  59        6D-1        0.00000  -0.00049   0.00000   0.00000  -0.01518
  60        6D+2        0.00000   0.00000   0.00000  -0.00103   0.00000
  61        6D-2        0.00000   0.00000   0.00000   0.00000   0.00000
  62        7F 0        0.00000   0.00000   0.00000   0.00458   0.00000
  63        7F+1        0.00533   0.00000  -0.00108   0.00000   0.00000
  64        7F-1        0.00000  -0.00079   0.00000   0.00000  -0.00190
  65        7F+2        0.00000   0.00000   0.00000   0.00001   0.00000
  66        7F-2        0.00000   0.00000   0.00000   0.00000   0.00000
  67        7F+3        0.00012   0.00000   0.00001   0.00000   0.00000
  68        7F-3        0.00000  -0.00004   0.00000   0.00000  -0.00001
                          16        17        18        19        20
                           V         V         V         V         V
     Eigenvalues --     0.15655   0.20818   0.27595   0.29188   0.29479
   1 1   P  1S          0.00000  -0.01448  -0.02099   0.00000   0.00273
   2        2S          0.00000  -0.03950  -0.05781   0.00000   0.00760
   3        3S          0.00000   0.08042   0.12282   0.00000  -0.01680
   4        4S          0.00000   0.20151   0.27506   0.00000  -0.03318
   5        5S          0.00000  -0.83632  -1.18157   0.00000   0.13381
   6        6S          0.00000   1.56557   2.32136   0.00000  -0.23271
   7        7PX         0.08102   0.00000   0.00000   0.00000   0.00000
   8        7PY         0.00000   0.00000   0.00000   0.00000   0.00000
   9        7PZ         0.00000   0.07181  -0.03652   0.00000   0.00285
  10        8PX         0.12600   0.00000   0.00000   0.00000   0.00000
  11        8PY         0.00000   0.00000   0.00000   0.00000   0.00000
  12        8PZ         0.00000   0.10524  -0.06766   0.00000   0.00525
  13        9PX        -0.10028   0.00000   0.00000   0.00000   0.00000
  14        9PY         0.00000   0.00000   0.00000   0.00000   0.00000
  15        9PZ         0.00000   0.00857   0.21200   0.00000  -0.01780
  16       10PX        -0.90802   0.00000   0.00000   0.00000   0.00000
  17       10PY         0.00000   0.00000   0.00000   0.00000   0.00000
  18       10PZ         0.00000  -1.55423  -0.80427   0.00000   0.08291
  19       11PX         1.19800   0.00000   0.00000   0.00000   0.00000
  20       11PY         0.00000   0.00000   0.00000   0.00000   0.00000
  21       11PZ         0.00000   0.80819  -0.80104   0.00000   0.07747
  22       12D 0        0.00000  -0.06784   0.06351   0.00000  -0.00560
  23       12D+1        0.00529   0.00000   0.00000   0.00000   0.00000
  24       12D-1        0.00000   0.00000   0.00000   0.00000   0.00000
  25       12D+2        0.00000   0.00118   0.01593   0.00000   0.16455
  26       12D-2        0.00000   0.00000   0.00000   0.16511   0.00000
  27       13D 0        0.00000   0.10344   1.01656   0.00000  -0.09218
  28       13D+1        0.00241   0.00000   0.00000   0.00000   0.00000
  29       13D-1        0.00000   0.00000   0.00000   0.00000   0.00000
  30       13D+2        0.00000   0.00579   0.09120   0.00000   0.90312
  31       13D-2        0.00000   0.00000   0.00000   0.90808   0.00000
  32       14F 0        0.00000  -0.09266  -0.20555   0.00000   0.02574
  33       14F+1        0.00383   0.00000   0.00000   0.00000   0.00000
  34       14F-1        0.00000   0.00000   0.00000   0.00000   0.00000
  35       14F+2        0.00000  -0.00061  -0.00013   0.00000   0.00247
  36       14F-2        0.00000   0.00000   0.00000   0.00373   0.00000
  37       14F+3        0.00106   0.00000   0.00000   0.00000   0.00000
  38       14F-3        0.00000   0.00000   0.00000   0.00000   0.00000
  39 2   O  1S          0.00000   0.01020   0.00799   0.00000   0.00015
  40        2S          0.00000   0.01654   0.00987   0.00000   0.00070
  41        2PX         0.00539   0.00000   0.00000   0.00000   0.00000
  42        2PY         0.00000   0.00000   0.00000   0.00000   0.00000
  43        2PZ         0.00000  -0.04128   0.14943   0.00000  -0.01783
  44        3S          0.00000  -0.00876   0.09380   0.00000  -0.01778
  45        3PX         0.01854   0.00000   0.00000   0.00000   0.00000
  46        3PY         0.00000   0.00000   0.00000   0.00000   0.00000
  47        3PZ         0.00000  -0.11041   0.13871   0.00000  -0.01920
  48        4S          0.00000  -0.86224  -2.03347   0.00000   0.20401
  49        4PX        -0.02987   0.00000   0.00000   0.00000   0.00000
  50        4PY         0.00000   0.00000   0.00000   0.00000   0.00000
  51        4PZ         0.00000  -0.76047  -0.92709   0.00000   0.09392
  52        5D 0        0.00000   0.00828   0.01022   0.00000  -0.00107
  53        5D+1       -0.00366   0.00000   0.00000   0.00000   0.00000
  54        5D-1        0.00000   0.00000   0.00000   0.00000   0.00000
  55        5D+2        0.00000   0.00007   0.00026   0.00000   0.00283
  56        5D-2        0.00000   0.00000   0.00000   0.00284   0.00000
  57        6D 0        0.00000  -0.11687  -0.19354   0.00000   0.02016
  58        6D+1       -0.01579   0.00000   0.00000   0.00000   0.00000
  59        6D-1        0.00000   0.00000   0.00000   0.00000   0.00000
  60        6D+2        0.00000   0.00081   0.00371   0.00000   0.03192
  61        6D-2        0.00000   0.00000   0.00000   0.03178   0.00000
  62        7F 0        0.00000  -0.00663  -0.00744   0.00000   0.00078
  63        7F+1       -0.00191   0.00000   0.00000   0.00000   0.00000
  64        7F-1        0.00000   0.00000   0.00000   0.00000   0.00000
  65        7F+2        0.00000   0.00005   0.00023   0.00000   0.00249
  66        7F-2        0.00000   0.00000   0.00000   0.00249   0.00000
  67        7F+3       -0.00002   0.00000   0.00000   0.00000   0.00000
  68        7F-3        0.00000   0.00000   0.00000   0.00000   0.00000
                          21        22        23        24        25
                           V         V         V         V         V
     Eigenvalues --     0.39247   0.39867   0.61566   0.82014   0.82211
   1 1   P  1S          0.00000   0.00000  -0.01987   0.00000   0.00000
   2        2S          0.00000   0.00000  -0.05227   0.00000   0.00000
   3        3S          0.00000   0.00000   0.08885   0.00000   0.00000
   4        4S          0.00000   0.00000   0.37133   0.00000   0.00000
   5        5S          0.00000   0.00000  -1.25700   0.00000   0.00000
   6        6S          0.00000   0.00000  -0.92193   0.00000   0.00000
   7        7PX         0.00000   0.01031   0.00000   0.00000  -0.00109
   8        7PY         0.01291   0.00000   0.00000  -0.00063   0.00000
   9        7PZ         0.00000   0.00000  -0.06953   0.00000   0.00000
  10        8PX         0.00000   0.01841   0.00000   0.00000  -0.00513
  11        8PY         0.02272   0.00000   0.00000  -0.00477   0.00000
  12        8PZ         0.00000   0.00000  -0.11491   0.00000   0.00000
  13        9PX         0.00000  -0.03438   0.00000   0.00000   0.04216
  14        9PY        -0.04068   0.00000   0.00000   0.04452   0.00000
  15        9PZ         0.00000   0.00000   0.09402   0.00000   0.00000
  16       10PX         0.00000  -0.05428   0.00000   0.00000  -0.21749
  17       10PY        -0.06818   0.00000   0.00000  -0.22813   0.00000
  18       10PZ         0.00000   0.00000   1.95022   0.00000   0.00000
  19       11PX         0.00000  -0.14772   0.00000   0.00000  -0.32201
  20       11PY        -0.13597   0.00000   0.00000  -0.31927   0.00000
  21       11PZ         0.00000   0.00000  -0.10167   0.00000   0.00000
  22       12D 0        0.00000   0.00000  -0.07225   0.00000   0.00000
  23       12D+1        0.00000   0.17617   0.00000   0.00000   0.05513
  24       12D-1        0.17730   0.00000   0.00000   0.05440   0.00000
  25       12D+2        0.00000   0.00000  -0.00008   0.00000   0.00000
  26       12D-2        0.00000   0.00000   0.00000   0.00000   0.00000
  27       13D 0        0.00000   0.00000  -1.23503   0.00000   0.00000
  28       13D+1        0.00000   0.97390   0.00000   0.00000   0.39733
  29       13D-1        0.96931   0.00000   0.00000   0.40404   0.00000
  30       13D+2        0.00000   0.00000   0.00720   0.00000   0.00000
  31       13D-2        0.00000   0.00000   0.00000   0.00000   0.00000
  32       14F 0        0.00000   0.00000   0.05120   0.00000   0.00000
  33       14F+1        0.00000   0.03980   0.00000   0.00000  -0.18132
  34       14F-1        0.04649   0.00000   0.00000  -0.17680   0.00000
  35       14F+2        0.00000   0.00000  -0.00054   0.00000   0.00000
  36       14F-2        0.00000   0.00000   0.00000   0.00000   0.00000
  37       14F+3        0.00000  -0.00321   0.00000   0.00000   0.00015
  38       14F-3       -0.00247   0.00000   0.00000   0.00035   0.00000
  39 2   O  1S          0.00000   0.00000  -0.05451   0.00000   0.00000
  40        2S          0.00000   0.00000  -0.09282   0.00000   0.00000
  41        2PX         0.00000   0.13294   0.00000   0.00000  -0.22656
  42        2PY         0.13079   0.00000   0.00000  -0.22456   0.00000
  43        2PZ         0.00000   0.00000   0.02558   0.00000   0.00000
  44        3S          0.00000   0.00000   0.30833   0.00000   0.00000
  45        3PX         0.00000   0.22653   0.00000   0.00000  -0.75161
  46        3PY         0.22286   0.00000   0.00000  -0.74238   0.00000
  47        3PZ         0.00000   0.00000  -0.07009   0.00000   0.00000
  48        4S          0.00000   0.00000   1.93006   0.00000   0.00000
  49        4PX         0.00000   0.30050   0.00000   0.00000   1.49232
  50        4PY         0.28106   0.00000   0.00000   1.49911   0.00000
  51        4PZ         0.00000   0.00000   2.03362   0.00000   0.00000
  52        5D 0        0.00000   0.00000  -0.03423   0.00000   0.00000
  53        5D+1        0.00000  -0.01172   0.00000   0.00000  -0.01815
  54        5D-1       -0.01179   0.00000   0.00000  -0.01816   0.00000
  55        5D+2        0.00000   0.00000  -0.00039   0.00000   0.00000
  56        5D-2        0.00000   0.00000   0.00000   0.00000   0.00000
  57        6D 0        0.00000   0.00000   0.08334   0.00000   0.00000
  58        6D+1        0.00000  -0.02268   0.00000   0.00000  -0.04203
  59        6D-1       -0.02419   0.00000   0.00000  -0.04184   0.00000
  60        6D+2        0.00000   0.00000   0.00035   0.00000   0.00000
  61        6D-2        0.00000   0.00000   0.00000   0.00000   0.00000
  62        7F 0        0.00000   0.00000   0.00879   0.00000   0.00000
  63        7F+1        0.00000  -0.00214   0.00000   0.00000   0.00494
  64        7F-1       -0.00262   0.00000   0.00000   0.00523   0.00000
  65        7F+2        0.00000   0.00000   0.00003   0.00000   0.00000
  66        7F-2        0.00000   0.00000   0.00000   0.00000   0.00000
  67        7F+3        0.00000  -0.00013   0.00000   0.00000   0.00018
  68        7F-3       -0.00010   0.00000   0.00000   0.00013   0.00000
                          26        27        28        29        30
                           V         V         V         V         V
     Eigenvalues --     0.82631   1.14163   1.17687   1.17859   1.28540
   1 1   P  1S         -0.00234  -0.00272   0.00000  -0.00005   0.00000
   2        2S         -0.00384  -0.00779   0.00000  -0.00009   0.00000
   3        3S         -0.01610   0.01973   0.00000  -0.00021   0.00000
   4        4S          0.13896   0.02751   0.00000   0.00221   0.00000
   5        5S         -0.65364   0.09192   0.00000   0.00376   0.00000
   6        6S         -0.17754  -1.32549   0.00000  -0.08335   0.00000
   7        7PX         0.00000   0.00000   0.00000   0.00000   0.00000
   8        7PY         0.00000   0.00000   0.00000   0.00000   0.00116
   9        7PZ         0.03507  -0.07808   0.00000  -0.00488   0.00000
  10        8PX         0.00000   0.00000   0.00000   0.00000   0.00000
  11        8PY         0.00000   0.00000   0.00000   0.00000   0.00293
  12        8PZ         0.05325  -0.15763   0.00000  -0.00966   0.00000
  13        9PX         0.00000   0.00000   0.00000   0.00000   0.00000
  14        9PY         0.00000   0.00000   0.00000   0.00000  -0.01199
  15        9PZ        -0.11493   0.47227   0.00000   0.02854   0.00000
  16       10PX         0.00000   0.00000   0.00000   0.00000   0.00000
  17       10PY         0.00000   0.00000   0.00000   0.00000   0.01044
  18       10PZ         0.58812   0.46998   0.00000   0.03508   0.00000
  19       11PX         0.00000   0.00000   0.00000   0.00000   0.00000
  20       11PY         0.00000   0.00000   0.00000   0.00000  -0.00284
  21       11PZ        -0.10509   0.68119   0.00000   0.04274   0.00000
  22       12D 0        0.06944  -0.10888   0.00000  -0.00734   0.00000
  23       12D+1        0.00000   0.00000   0.00000   0.00000   0.00000
  24       12D-1        0.00000   0.00000   0.00000   0.00000  -0.00165
  25       12D+2       -0.00222  -0.00434   0.00000   0.03559   0.00000
  26       12D-2        0.00000   0.00000   0.03516   0.00000   0.00000
  27       13D 0        0.26391  -0.61025   0.00000  -0.03965   0.00000
  28       13D+1        0.00000   0.00000   0.00000   0.00000   0.00000
  29       13D-1        0.00000   0.00000   0.00000   0.00000   0.00355
  30       13D+2       -0.00880  -0.00580   0.00000   0.06689   0.00000
  31       13D-2        0.00000   0.00000   0.06596   0.00000   0.00000
  32       14F 0        0.41816   0.32468   0.00000   0.02810   0.00000
  33       14F+1        0.00000   0.00000   0.00000   0.00000   0.00000
  34       14F-1        0.00000   0.00000   0.00000   0.00000   0.01630
  35       14F+2       -0.00590  -0.04945   0.00000   0.78079   0.00000
  36       14F-2        0.00000   0.00000   0.78348   0.00000   0.00000
  37       14F+3        0.00000   0.00000   0.00000   0.00000   0.00000
  38       14F-3        0.00000   0.00000   0.00000   0.00000   0.99952
  39 2   O  1S          0.02547   0.08043   0.00000   0.00526   0.00000
  40        2S          0.04854   0.16212   0.00000   0.01053   0.00000
  41        2PX         0.00000   0.00000   0.00000   0.00000   0.00000
  42        2PY         0.00000   0.00000   0.00000   0.00000  -0.00187
  43        2PZ        -0.23094   0.12261   0.00000   0.00692   0.00000
  44        3S         -0.34416  -1.26680   0.00000  -0.08129   0.00000
  45        3PX         0.00000   0.00000   0.00000   0.00000   0.00000
  46        3PY         0.00000   0.00000   0.00000   0.00000  -0.00444
  47        3PZ        -0.55288   0.32798   0.00000   0.02015   0.00000
  48        4S          0.72960   2.78601   0.00000   0.18310   0.00000
  49        4PX         0.00000   0.00000   0.00000   0.00000   0.00000
  50        4PY         0.00000   0.00000   0.00000   0.00000  -0.00003
  51        4PZ         1.29612   0.48836   0.00000   0.03834   0.00000
  52        5D 0       -0.01406  -0.01822   0.00000  -0.00144   0.00000
  53        5D+1        0.00000   0.00000   0.00000   0.00000   0.00000
  54        5D-1        0.00000   0.00000   0.00000   0.00000   0.00043
  55        5D+2        0.00001   0.00044   0.00000  -0.00568   0.00000
  56        5D-2        0.00000   0.00000  -0.00573   0.00000   0.00000
  57        6D 0        0.08652  -0.23756   0.00000  -0.01681   0.00000
  58        6D+1        0.00000   0.00000   0.00000   0.00000   0.00000
  59        6D-1        0.00000   0.00000   0.00000   0.00000   0.00484
  60        6D+2        0.00291   0.03280   0.00000  -0.45334   0.00000
  61        6D-2        0.00000   0.00000  -0.45308   0.00000   0.00000
  62        7F 0        0.01062  -0.00431   0.00000   0.00001   0.00000
  63        7F+1        0.00000   0.00000   0.00000   0.00000   0.00000
  64        7F-1        0.00000   0.00000   0.00000   0.00000  -0.00047
  65        7F+2        0.00017   0.00072   0.00000  -0.01002   0.00000
  66        7F-2        0.00000   0.00000  -0.01001   0.00000   0.00000
  67        7F+3        0.00000   0.00000   0.00000   0.00000   0.00000
  68        7F-3        0.00000   0.00000   0.00000   0.00000   0.00790
                          31        32        33        34        35
                           V         V         V         V         V
     Eigenvalues --     1.28582   1.32494   1.32505   1.40163   1.40248
   1 1   P  1S          0.00000   0.00000   0.00000   0.00000   0.00000
   2        2S          0.00000   0.00000   0.00000   0.00000   0.00000
   3        3S          0.00000   0.00000   0.00000   0.00000   0.00000
   4        4S          0.00000   0.00000   0.00000   0.00000   0.00000
   5        5S          0.00000   0.00000   0.00000   0.00000   0.00000
   6        6S          0.00000   0.00000   0.00000   0.00000   0.00000
   7        7PX        -0.00156  -0.04795   0.00000   0.00000  -0.18788
   8        7PY         0.00000   0.00000  -0.04798  -0.18682   0.00000
   9        7PZ         0.00000   0.00000   0.00000   0.00000   0.00000
  10        8PX        -0.00317  -0.11415   0.00000   0.00000  -0.42934
  11        8PY         0.00000   0.00000  -0.11369  -0.42751   0.00000
  12        8PZ         0.00000   0.00000   0.00000   0.00000   0.00000
  13        9PX         0.01281   0.49186   0.00000   0.00000   1.77053
  14        9PY         0.00000   0.00000   0.48870   1.76859   0.00000
  15        9PZ         0.00000   0.00000   0.00000   0.00000   0.00000
  16       10PX        -0.01347  -0.55906   0.00000   0.00000  -1.60651
  17       10PY         0.00000   0.00000  -0.55121  -1.61020   0.00000
  18       10PZ         0.00000   0.00000   0.00000   0.00000   0.00000
  19       11PX         0.00505   0.17456   0.00000   0.00000   0.49390
  20       11PY         0.00000   0.00000   0.17490   0.49699   0.00000
  21       11PZ         0.00000   0.00000   0.00000   0.00000   0.00000
  22       12D 0        0.00000   0.00000   0.00000   0.00000   0.00000
  23       12D+1       -0.00526  -0.13487   0.00000   0.00000   0.08292
  24       12D-1        0.00000   0.00000  -0.13339   0.09359   0.00000
  25       12D+2        0.00000   0.00000   0.00000   0.00000   0.00000
  26       12D-2        0.00000   0.00000   0.00000   0.00000   0.00000
  27       13D 0        0.00000   0.00000   0.00000   0.00000   0.00000
  28       13D+1        0.00910   0.16853   0.00000   0.00000  -0.04318
  29       13D-1        0.00000   0.00000   0.15908  -0.05103   0.00000
  30       13D+2        0.00000   0.00000   0.00000   0.00000   0.00000
  31       13D-2        0.00000   0.00000   0.00000   0.00000   0.00000
  32       14F 0        0.00000   0.00000   0.00000   0.00000   0.00000
  33       14F+1        0.04497   0.80090   0.00000   0.00000  -0.18732
  34       14F-1        0.00000   0.00000   0.80536  -0.18255   0.00000
  35       14F+2        0.00000   0.00000   0.00000   0.00000   0.00000
  36       14F-2        0.00000   0.00000   0.00000   0.00000   0.00000
  37       14F+3        0.99835  -0.05142   0.00000   0.00000   0.00686
  38       14F-3        0.00000   0.00000  -0.01590   0.01089   0.00000
  39 2   O  1S          0.00000   0.00000   0.00000   0.00000   0.00000
  40        2S          0.00000   0.00000   0.00000   0.00000   0.00000
  41        2PX        -0.00554  -0.10672   0.00000   0.00000   0.04068
  42        2PY         0.00000   0.00000  -0.10559   0.04103   0.00000
  43        2PZ         0.00000   0.00000   0.00000   0.00000   0.00000
  44        3S          0.00000   0.00000   0.00000   0.00000   0.00000
  45        3PX        -0.01285  -0.23805   0.00000   0.00000   0.09894
  46        3PY         0.00000   0.00000  -0.23312   0.09823   0.00000
  47        3PZ         0.00000   0.00000   0.00000   0.00000   0.00000
  48        4S          0.00000   0.00000   0.00000   0.00000   0.00000
  49        4PX         0.00376   0.12306   0.00000   0.00000   0.02641
  50        4PY         0.00000   0.00000   0.11409   0.02095   0.00000
  51        4PZ         0.00000   0.00000   0.00000   0.00000   0.00000
  52        5D 0        0.00000   0.00000   0.00000   0.00000   0.00000
  53        5D+1        0.00109   0.02001   0.00000   0.00000  -0.01050
  54        5D-1        0.00000   0.00000   0.02079  -0.01061   0.00000
  55        5D+2        0.00000   0.00000   0.00000   0.00000   0.00000
  56        5D-2        0.00000   0.00000   0.00000   0.00000   0.00000
  57        6D 0        0.00000   0.00000   0.00000   0.00000   0.00000
  58        6D+1        0.01442   0.31464   0.00000   0.00000  -0.12852
  59        6D-1        0.00000   0.00000   0.31303  -0.12929   0.00000
  60        6D+2        0.00000   0.00000   0.00000   0.00000   0.00000
  61        6D-2        0.00000   0.00000   0.00000   0.00000   0.00000
  62        7F 0        0.00000   0.00000   0.00000   0.00000   0.00000
  63        7F+1       -0.00068  -0.00553   0.00000   0.00000   0.02103
  64        7F-1        0.00000   0.00000  -0.00614   0.02034   0.00000
  65        7F+2        0.00000   0.00000   0.00000   0.00000   0.00000
  66        7F-2        0.00000   0.00000   0.00000   0.00000   0.00000
  67        7F+3        0.00790  -0.00019   0.00000   0.00000  -0.00009
  68        7F-3        0.00000   0.00000   0.00008  -0.00004   0.00000
                          36        37        38        39        40
                           V         V         V         V         V
     Eigenvalues --     1.51066   1.66709   1.66802   1.67732   1.83231
   1 1   P  1S         -0.01370   0.00000  -0.00098  -0.01171   0.00000
   2        2S         -0.03691   0.00000  -0.00260  -0.03096   0.00000
   3        3S          0.07008   0.00000   0.00457   0.05349   0.00000
   4        4S          0.27204   0.00000   0.02164   0.25949   0.00000
   5        5S         -0.88163   0.00000  -0.07040  -0.82224   0.00000
   6        6S         -2.05921   0.00000  -0.10774  -1.34741   0.00000
   7        7PX         0.00000   0.00000   0.00000   0.00000   0.00000
   8        7PY         0.00000   0.00000   0.00000   0.00000   0.00000
   9        7PZ         0.14732   0.00000  -0.00637  -0.05935   0.00000
  10        8PX         0.00000   0.00000   0.00000   0.00000   0.00000
  11        8PY         0.00000   0.00000   0.00000   0.00000   0.00000
  12        8PZ         0.34905   0.00000  -0.01445  -0.13211   0.00000
  13        9PX         0.00000   0.00000   0.00000   0.00000   0.00000
  14        9PY         0.00000   0.00000   0.00000   0.00000   0.00000
  15        9PZ        -1.74432   0.00000   0.04498   0.35393   0.00000
  16       10PX         0.00000   0.00000   0.00000   0.00000   0.00000
  17       10PY         0.00000   0.00000   0.00000   0.00000   0.00000
  18       10PZ         4.02285   0.00000   0.11350   1.54665   0.00000
  19       11PX         0.00000   0.00000   0.00000   0.00000   0.00000
  20       11PY         0.00000   0.00000   0.00000   0.00000   0.00000
  21       11PZ        -0.08109   0.00000   0.03392   0.36956   0.00000
  22       12D 0        0.04351   0.00000   0.07915   0.82061   0.00000
  23       12D+1        0.00000   0.00000   0.00000   0.00000   0.00000
  24       12D-1        0.00000   0.00000   0.00000   0.00000   0.00000
  25       12D+2        0.00198   0.00000  -0.38743   0.02185   0.00000
  26       12D-2        0.00000  -0.38831   0.00000   0.00000   1.04339
  27       13D 0       -1.37695   0.00000  -0.13955  -1.61985   0.00000
  28       13D+1        0.00000   0.00000   0.00000   0.00000   0.00000
  29       13D-1        0.00000   0.00000   0.00000   0.00000   0.00000
  30       13D+2       -0.00069   0.00000   0.07712   0.00248   0.00000
  31       13D-2        0.00000   0.07638   0.00000   0.00000  -0.68216
  32       14F 0        0.02464   0.00000   0.03266   0.40433   0.00000
  33       14F+1        0.00000   0.00000   0.00000   0.00000   0.00000
  34       14F-1        0.00000   0.00000   0.00000   0.00000   0.00000
  35       14F+2        0.00545   0.00000   0.63213  -0.06257   0.00000
  36       14F-2        0.00000   0.63386   0.00000   0.00000   0.22232
  37       14F+3        0.00000   0.00000   0.00000   0.00000   0.00000
  38       14F-3        0.00000   0.00000   0.00000   0.00000   0.00000
  39 2   O  1S          0.05970   0.00000   0.00178   0.02410   0.00000
  40        2S          0.12138   0.00000   0.00337   0.04623   0.00000
  41        2PX         0.00000   0.00000   0.00000   0.00000   0.00000
  42        2PY         0.00000   0.00000   0.00000   0.00000   0.00000
  43        2PZ        -0.03802   0.00000  -0.00316  -0.02167   0.00000
  44        3S         -1.10750   0.00000  -0.03599  -0.47084   0.00000
  45        3PX         0.00000   0.00000   0.00000   0.00000   0.00000
  46        3PY         0.00000   0.00000   0.00000   0.00000   0.00000
  47        3PZ         0.14217   0.00000   0.02317   0.29186   0.00000
  48        4S          4.29513   0.00000   0.24054   2.96045   0.00000
  49        4PX         0.00000   0.00000   0.00000   0.00000   0.00000
  50        4PY         0.00000   0.00000   0.00000   0.00000   0.00000
  51        4PZ         2.10972   0.00000   0.10759   1.30877   0.00000
  52        5D 0       -0.00767   0.00000   0.00116   0.00645   0.00000
  53        5D+1        0.00000   0.00000   0.00000   0.00000   0.00000
  54        5D-1        0.00000   0.00000   0.00000   0.00000   0.00000
  55        5D+2        0.00031   0.00000   0.00858  -0.00059   0.00000
  56        5D-2        0.00000   0.00864   0.00000   0.00000   0.00447
  57        6D 0        0.35445   0.00000   0.06821   0.74792   0.00000
  58        6D+1        0.00000   0.00000   0.00000   0.00000   0.00000
  59        6D-1        0.00000   0.00000   0.00000   0.00000   0.00000
  60        6D+2        0.00549   0.00000   0.85295  -0.08777   0.00000
  61        6D-2        0.00000   0.85802   0.00000   0.00000   0.37917
  62        7F 0        0.03427   0.00000   0.00308   0.03689   0.00000
  63        7F+1        0.00000   0.00000   0.00000   0.00000   0.00000
  64        7F-1        0.00000   0.00000   0.00000   0.00000   0.00000
  65        7F+2       -0.00001   0.00000  -0.00800   0.00065   0.00000
  66        7F-2        0.00000  -0.00798   0.00000   0.00000   0.00333
  67        7F+3        0.00000   0.00000   0.00000   0.00000   0.00000
  68        7F-3        0.00000   0.00000   0.00000   0.00000   0.00000
                          41        42        43        44        45
                           V         V         V         V         V
     Eigenvalues --     1.83341   1.87574   1.88092   1.88295   2.25548
   1 1   P  1S          0.00000   0.00000   0.00000  -0.01809   0.00000
   2        2S          0.00016   0.00000   0.00000  -0.05287   0.00000
   3        3S         -0.00182   0.00000   0.00000   0.14137   0.00000
   4        4S          0.00561   0.00000   0.00000   0.21148   0.00000
   5        5S         -0.01237   0.00000   0.00000  -0.66157   0.00000
   6        6S         -0.01360   0.00000   0.00000  -1.61997   0.00000
   7        7PX         0.00000   0.00769   0.00000   0.00000  -0.00724
   8        7PY         0.00000   0.00000   0.00980   0.00000   0.00000
   9        7PZ        -0.00163   0.00000   0.00000   0.02710   0.00000
  10        8PX         0.00000   0.01733   0.00000   0.00000  -0.03474
  11        8PY         0.00000   0.00000   0.02151   0.00000   0.00000
  12        8PZ        -0.00326   0.00000   0.00000   0.09915   0.00000
  13        9PX         0.00000  -0.08855   0.00000   0.00000   0.31965
  14        9PY         0.00000   0.00000  -0.10570   0.00000   0.00000
  15        9PZ         0.01120   0.00000   0.00000  -0.83275   0.00000
  16       10PX         0.00000   0.13179   0.00000   0.00000  -0.93850
  17       10PY         0.00000   0.00000   0.14493   0.00000   0.00000
  18       10PZ         0.01358   0.00000   0.00000   2.99936   0.00000
  19       11PX         0.00000   0.07018   0.00000   0.00000  -0.04813
  20       11PY         0.00000   0.00000   0.06584   0.00000   0.00000
  21       11PZ         0.00508   0.00000   0.00000   0.01716   0.00000
  22       12D 0        0.01148   0.00000   0.00000  -0.22926   0.00000
  23       12D+1        0.00000   1.10711   0.00000   0.00000  -0.10809
  24       12D-1        0.00000   0.00000   1.10610   0.00000   0.00000
  25       12D+2        1.04342   0.00000   0.00000  -0.00201   0.00000
  26       12D-2        0.00000   0.00000   0.00000   0.00000   0.00000
  27       13D 0       -0.02121   0.00000   0.00000  -1.53430   0.00000
  28       13D+1        0.00000  -0.80837   0.00000   0.00000   1.09231
  29       13D-1        0.00000   0.00000  -0.80674   0.00000   0.00000
  30       13D+2       -0.68225   0.00000   0.00000   0.00045   0.00000
  31       13D-2        0.00000   0.00000   0.00000   0.00000   0.00000
  32       14F 0        0.00708   0.00000   0.00000   1.36003   0.00000
  33       14F+1        0.00000   0.17025   0.00000   0.00000  -1.07066
  34       14F-1        0.00000   0.00000   0.16735   0.00000   0.00000
  35       14F+2        0.22218   0.00000   0.00000  -0.00012   0.00000
  36       14F-2        0.00000   0.00000   0.00000   0.00000   0.00000
  37       14F+3        0.00000  -0.00131   0.00000   0.00000   0.00188
  38       14F-3        0.00000   0.00000  -0.00084   0.00000   0.00000
  39 2   O  1S          0.00006   0.00000   0.00000  -0.04559   0.00000
  40        2S          0.00010   0.00000   0.00000  -0.09109   0.00000
  41        2PX         0.00000   0.00846   0.00000   0.00000   0.04182
  42        2PY         0.00000   0.00000   0.00825   0.00000   0.00000
  43        2PZ        -0.00014   0.00000   0.00000   0.17551   0.00000
  44        3S         -0.00261   0.00000   0.00000   0.55722   0.00000
  45        3PX         0.00000  -0.03924   0.00000   0.00000   0.00114
  46        3PY         0.00000   0.00000  -0.04013   0.00000   0.00000
  47        3PZ         0.00417   0.00000   0.00000   0.81469   0.00000
  48        4S          0.03314   0.00000   0.00000   2.74135   0.00000
  49        4PX         0.00000  -0.33088   0.00000   0.00000   1.11293
  50        4PY         0.00000   0.00000  -0.32731   0.00000   0.00000
  51        4PZ         0.01556   0.00000   0.00000   1.15673   0.00000
  52        5D 0        0.00022   0.00000   0.00000  -0.02024   0.00000
  53        5D+1        0.00000   0.01828   0.00000   0.00000   0.01015
  54        5D-1        0.00000   0.00000   0.01863   0.00000   0.00000
  55        5D+2        0.00446   0.00000   0.00000  -0.00003   0.00000
  56        5D-2        0.00000   0.00000   0.00000   0.00000   0.00000
  57        6D 0        0.01028   0.00000   0.00000   0.63983   0.00000
  58        6D+1        0.00000   0.06528   0.00000   0.00000   1.40133
  59        6D-1        0.00000   0.00000   0.06889   0.00000   0.00000
  60        6D+2        0.37867   0.00000   0.00000   0.00397   0.00000
  61        6D-2        0.00000   0.00000   0.00000   0.00000   0.00000
  62        7F 0        0.00037   0.00000   0.00000   0.02588   0.00000
  63        7F+1        0.00000  -0.06838   0.00000   0.00000   0.01496
  64        7F-1        0.00000   0.00000  -0.06866   0.00000   0.00000
  65        7F+2        0.00331   0.00000   0.00000  -0.00035   0.00000
  66        7F-2        0.00000   0.00000   0.00000   0.00000   0.00000
  67        7F+3        0.00000   0.00011   0.00000   0.00000   0.00022
  68        7F-3        0.00000   0.00000   0.00012   0.00000   0.00000
                          46        47        48        49        50
                           V         V         V         V         V
     Eigenvalues --     2.25753   2.57993   4.79215   4.79804   5.00251
   1 1   P  1S          0.00000  -0.01024   0.00000   0.00000   0.00000
   2        2S          0.00000  -0.02860   0.00000   0.00000   0.00000
   3        3S          0.00000   0.06322   0.00000   0.00000   0.00000
   4        4S          0.00000   0.22089   0.00000   0.00000   0.00000
   5        5S          0.00000  -1.17026   0.00000   0.00000   0.00000
   6        6S          0.00000  -0.15080   0.00000   0.00000   0.00000
   7        7PX         0.00000   0.00000   0.00000  -0.00056   0.00000
   8        7PY        -0.00747   0.00000  -0.00047   0.00000  -0.00005
   9        7PZ         0.00000  -0.07241   0.00000   0.00000   0.00000
  10        8PX         0.00000   0.00000   0.00000  -0.00425   0.00000
  11        8PY        -0.03541   0.00000  -0.00427   0.00000   0.00002
  12        8PZ         0.00000  -0.16732   0.00000   0.00000   0.00000
  13        9PX         0.00000   0.00000   0.00000   0.03720   0.00000
  14        9PY         0.32298   0.00000   0.03745   0.00000  -0.00027
  15        9PZ         0.00000   0.84287   0.00000   0.00000   0.00000
  16       10PX         0.00000   0.00000   0.00000  -0.02310   0.00000
  17       10PY        -0.94279   0.00000  -0.02436   0.00000   0.00059
  18       10PZ         0.00000   0.33843   0.00000   0.00000   0.00000
  19       11PX         0.00000   0.00000   0.00000   0.10356   0.00000
  20       11PY        -0.04760   0.00000   0.10372   0.00000  -0.00100
  21       11PZ         0.00000  -0.03745   0.00000   0.00000   0.00000
  22       12D 0        0.00000  -0.78352   0.00000   0.00000   0.00000
  23       12D+1        0.00000   0.00000   0.00000   0.00778   0.00000
  24       12D-1       -0.11055   0.00000   0.00819   0.00000  -0.00040
  25       12D+2        0.00000   0.00002   0.00000   0.00000   0.00000
  26       12D-2        0.00000   0.00000   0.00000   0.00000   0.00000
  27       13D 0        0.00000   0.26594   0.00000   0.00000   0.00000
  28       13D+1        0.00000   0.00000   0.00000  -0.00656   0.00000
  29       13D-1        1.09622   0.00000  -0.00511   0.00000  -0.00042
  30       13D+2        0.00000  -0.00015   0.00000   0.00000   0.00000
  31       13D-2        0.00000   0.00000   0.00000   0.00000   0.00000
  32       14F 0        0.00000  -0.26154   0.00000   0.00000   0.00000
  33       14F+1        0.00000   0.00000   0.00000  -0.13382   0.00000
  34       14F-1       -1.06977   0.00000  -0.13568   0.00000   0.00199
  35       14F+2        0.00000   0.00121   0.00000   0.00000   0.00000
  36       14F-2        0.00000   0.00000   0.00000   0.00000   0.00000
  37       14F+3        0.00000   0.00000   0.00000  -0.00026   0.00000
  38       14F-3        0.00108   0.00000  -0.00033   0.00000  -0.04046
  39 2   O  1S          0.00000   0.03433   0.00000   0.00000   0.00000
  40        2S          0.00000   0.07918   0.00000   0.00000   0.00000
  41        2PX         0.00000   0.00000   0.00000  -1.25878   0.00000
  42        2PY         0.04254   0.00000  -1.25801   0.00000   0.01325
  43        2PZ         0.00000   0.09843   0.00000   0.00000   0.00000
  44        3S          0.00000  -0.87182   0.00000   0.00000   0.00000
  45        3PX         0.00000   0.00000   0.00000   1.44243   0.00000
  46        3PY        -0.00021   0.00000   1.44565   0.00000  -0.01513
  47        3PZ         0.00000  -0.37259   0.00000   0.00000   0.00000
  48        4S          0.00000   1.34154   0.00000   0.00000   0.00000
  49        4PX         0.00000   0.00000   0.00000  -0.58284   0.00000
  50        4PY         1.11586   0.00000  -0.58316   0.00000   0.00522
  51        4PZ         0.00000   1.26414   0.00000   0.00000   0.00000
  52        5D 0        0.00000   0.02723   0.00000   0.00000   0.00000
  53        5D+1        0.00000   0.00000   0.00000  -0.01130   0.00000
  54        5D-1        0.01077   0.00000  -0.01079   0.00000  -0.00033
  55        5D+2        0.00000   0.00043   0.00000   0.00000   0.00000
  56        5D-2        0.00000   0.00000   0.00000   0.00000   0.00000
  57        6D 0        0.00000   1.10297   0.00000   0.00000   0.00000
  58        6D+1        0.00000   0.00000   0.00000   0.03605   0.00000
  59        6D-1        1.40079   0.00000   0.03748   0.00000  -0.00101
  60        6D+2        0.00000  -0.00138   0.00000   0.00000   0.00000
  61        6D-2        0.00000   0.00000   0.00000   0.00000   0.00000
  62        7F 0        0.00000  -0.09610   0.00000   0.00000   0.00000
  63        7F+1        0.00000   0.00000   0.00000  -0.09931   0.00000
  64        7F-1        0.01486   0.00000  -0.09567   0.00000  -0.00101
  65        7F+2        0.00000   0.00040   0.00000   0.00000   0.00000
  66        7F-2        0.00000   0.00000   0.00000   0.00000   0.00000
  67        7F+3        0.00000   0.00000   0.00000   0.00980   0.00000
  68        7F-3        0.00020   0.00000   0.01032   0.00000   1.00044
                          51        52        53        54        55
                           V         V         V         V         V
     Eigenvalues --     5.00255   5.04880   5.07077   5.07143   5.17659
   1 1   P  1S          0.00000  -0.02781   0.00000   0.00326   0.00000
   2        2S          0.00000  -0.10412   0.00000   0.01221   0.00000
   3        3S          0.00000   0.52388   0.00000  -0.06147   0.00000
   4        4S          0.00000  -0.49621   0.00000   0.05826   0.00000
   5        5S          0.00000   0.32265   0.00000  -0.03716   0.00000
   6        6S          0.00000  -0.64624   0.00000   0.07466   0.00000
   7        7PX         0.00000   0.00000   0.00000   0.00000   0.02856
   8        7PY         0.00000   0.00000   0.00000   0.00000   0.00000
   9        7PZ         0.00000  -0.00732   0.00000   0.00093   0.00000
  10        8PX         0.00003   0.00000   0.00000   0.00000   0.00612
  11        8PY         0.00000   0.00000   0.00000   0.00000   0.00000
  12        8PZ         0.00000   0.02363   0.00000  -0.00260   0.00000
  13        9PX        -0.00029   0.00000   0.00000   0.00000  -0.03196
  14        9PY         0.00000   0.00000   0.00000   0.00000   0.00000
  15        9PZ         0.00000  -0.28063   0.00000   0.03148   0.00000
  16       10PX         0.00027   0.00000   0.00000   0.00000  -0.16494
  17       10PY         0.00000   0.00000   0.00000   0.00000   0.00000
  18       10PZ         0.00000   0.81761   0.00000  -0.09376   0.00000
  19       11PX        -0.00094   0.00000   0.00000   0.00000  -0.00301
  20       11PY         0.00000   0.00000   0.00000   0.00000   0.00000
  21       11PZ         0.00000   0.09314   0.00000  -0.01092   0.00000
  22       12D 0        0.00000   0.04322   0.00000  -0.00440   0.00000
  23       12D+1       -0.00018   0.00000   0.00000   0.00000   0.12655
  24       12D-1        0.00000   0.00000   0.00000   0.00000   0.00000
  25       12D+2        0.00000   0.00086   0.00000   0.00466   0.00000
[...]
  60        6D+2        0.00000   0.00000   0.00000   0.00000   0.00000
  61        6D-2        0.00000   0.00000   0.00000   0.00000   0.00000
  62        7F 0        0.00000   0.00000   0.00000   0.00000   0.00000
  63        7F+1        0.00000   0.00000   0.00000   0.00000   0.00000
  64        7F-1        0.00000   0.00000   0.00000   0.00000   0.00000
  65        7F+2        0.00000   0.00000   0.00000   0.00000   0.00000
  66        7F-2        0.00000   0.00000   0.00000   0.00000   0.00000
  67        7F+3        0.00000   0.00000   0.00000   0.00000   0.00000
  68        7F-3        0.00000   0.00000   0.00000   0.00000   0.00000
                          56        57        58        59        60
  56        5D-2        0.00000
  57        6D 0        0.00000   0.00386
  58        6D+1        0.00000   0.00000   0.00175
  59        6D-1        0.00000   0.00000   0.00000   0.00166
  60        6D+2        0.00000   0.00000   0.00000   0.00000   0.00002
  61        6D-2        0.00000   0.00000   0.00000   0.00000   0.00000
  62        7F 0        0.00000   0.00000   0.00000   0.00000   0.00000
  63        7F+1        0.00000   0.00000   0.00000   0.00000   0.00000
  64        7F-1        0.00000   0.00000   0.00000   0.00000   0.00000
  65        7F+2        0.00000   0.00000   0.00000   0.00000   0.00000
  66        7F-2        0.00000   0.00000   0.00000   0.00000   0.00000
  67        7F+3        0.00000   0.00000   0.00000   0.00000   0.00000
  68        7F-3        0.00000   0.00000   0.00000   0.00000   0.00000
                          61        62        63        64        65
  61        6D-2        0.00000
  62        7F 0        0.00000   0.00010
  63        7F+1        0.00000   0.00000   0.00007
  64        7F-1        0.00000   0.00000   0.00000   0.00008
  65        7F+2        0.00000   0.00000   0.00000   0.00000   0.00000
  66        7F-2        0.00000   0.00000   0.00000   0.00000   0.00000
  67        7F+3        0.00000   0.00000   0.00000   0.00000   0.00000
  68        7F-3        0.00000   0.00000   0.00000   0.00000   0.00000
                          66        67        68
  66        7F-2        0.00000
  67        7F+3        0.00000   0.00000
  68        7F-3        0.00000   0.00000   0.00000
     Gross orbital populations:
                         Total     Alpha     Beta      Spin
   1 1   P  1S          0.79219   0.39609   0.39609   0.00000
   2        2S          1.17503   0.58751   0.58752  -0.00001
   3        3S          0.91432   0.45736   0.45696   0.00040
   4        4S          1.06680   0.53283   0.53396  -0.00113
   5        5S          1.02384   0.51652   0.50732   0.00919
   6        6S          0.84897   0.41549   0.43348  -0.01799
   7        7PX         0.66672   0.33345   0.33327   0.00017
   8        7PY         0.68013   0.34691   0.33321   0.01370
   9        7PZ         0.68034   0.34012   0.34022  -0.00011
  10        8PX         1.28420   0.64202   0.64218  -0.00016
  11        8PY         1.27771   0.63506   0.64265  -0.00758
  12        8PZ         1.27790   0.63895   0.63895   0.00000
  13        9PX         0.14155   0.07096   0.07060   0.00036
  14        9PY         0.23462   0.16775   0.06688   0.10087
  15        9PZ         0.25832   0.12787   0.13045  -0.00258
  16       10PX         0.33134   0.16718   0.16416   0.00302
  17       10PY         0.73801   0.59105   0.14696   0.44409
  18       10PZ         0.42240   0.21249   0.20992   0.00257
  19       11PX         0.11711   0.05792   0.05919  -0.00127
  20       11PY         0.31421   0.25369   0.06051   0.19318
  21       11PZ         0.04328   0.01978   0.02350  -0.00372
  22       12D 0        0.02165   0.01108   0.01056   0.00052
  23       12D+1        0.00949   0.00466   0.00483  -0.00017
  24       12D-1        0.01430   0.00910   0.00520   0.00389
  25       12D+2        0.00018   0.00002   0.00016  -0.00013
  26       12D-2        0.00000   0.00000   0.00000   0.00000
  27       13D 0        0.04350   0.02341   0.02009   0.00332
  28       13D+1        0.05334   0.02582   0.02752  -0.00170
  29       13D-1        0.08795   0.05836   0.02959   0.02877
  30       13D+2        0.00087   0.00014   0.00073  -0.00060
  31       13D-2        0.00000   0.00000   0.00000   0.00000
  32       14F 0        0.00934   0.00433   0.00501  -0.00068
  33       14F+1        0.01004   0.00467   0.00537  -0.00071
  34       14F-1        0.01383   0.00760   0.00623   0.00137
  35       14F+2        0.00007   0.00002   0.00005  -0.00004
  36       14F-2        0.00000   0.00000   0.00000   0.00000
  37       14F+3        0.00003   0.00000   0.00003  -0.00003
  38       14F-3        0.00003   0.00000   0.00003  -0.00002
  39 2   O  1S          1.08406   0.54196   0.54211  -0.00015
  40        2S          0.90927   0.45467   0.45460   0.00008
  41        2PX         0.27404   0.13757   0.13646   0.00111
  42        2PY         0.34809   0.20950   0.13859   0.07091
  43        2PZ         0.33055   0.16601   0.16453   0.00148
  44        3S          1.04159   0.52544   0.51615   0.00929
  45        3PX         0.57168   0.28711   0.28458   0.00253
  46        3PY         0.69564   0.40832   0.28732   0.12100
  47        3PZ         0.69791   0.35073   0.34717   0.00356
  48        4S          0.79880   0.39904   0.39976  -0.00072
  49        4PX         0.53012   0.26352   0.26660  -0.00309
  50        4PY         0.58594   0.30831   0.27763   0.03068
  51        4PZ         0.54605   0.27178   0.27427  -0.00249
  52        5D 0        0.00087   0.00043   0.00044  -0.00001
  53        5D+1        0.00046   0.00023   0.00023   0.00000
  54        5D-1        0.00045   0.00021   0.00023  -0.00002
  55        5D+2        0.00001   0.00000   0.00001   0.00000
  56        5D-2        0.00000   0.00000   0.00000   0.00000
  57        6D 0        0.01134   0.00568   0.00567   0.00001
  58        6D+1        0.00941   0.00468   0.00473  -0.00005
  59        6D-1        0.00867   0.00397   0.00470  -0.00073
  60        6D+2        0.00002   0.00000   0.00002  -0.00002
  61        6D-2        0.00000   0.00000   0.00000   0.00000
  62        7F 0        0.00055   0.00026   0.00030  -0.00004
  63        7F+1        0.00046   0.00022   0.00024  -0.00002
  64        7F-1        0.00045   0.00018   0.00027  -0.00009
  65        7F+2        0.00000   0.00000   0.00000   0.00000
  66        7F-2        0.00000   0.00000   0.00000   0.00000
  67        7F+3        0.00000   0.00000   0.00000   0.00000
  68        7F-3        0.00000   0.00000   0.00000   0.00000
          Condensed to atoms (all electrons):
               1          2
     1  P   14.026850   0.526737
     2  O    0.526737   7.919675
          Atomic-Atomic Spin Densities.
               1          2
     1  P    0.884335  -0.117551
     2  O   -0.117551   0.350766
 Mulliken charges and spin densities:
               1          2
     1  P    0.446413   0.766784
     2  O   -0.446413   0.233216
 Sum of Mulliken charges =   0.00000   1.00000
 Mulliken charges and spin densities with hydrogens summed into heavy atoms:
               1          2
     1  P    0.446413   0.766784
     2  O   -0.446413   0.233216
 Electronic spatial extent (au):  <R**2>=             81.0978
 Charge=              0.0000 electrons
 Dipole moment (field-independent basis, Debye):
    X=              0.0000    Y=              0.0000    Z=              2.0427  Tot=              2.0427
 Quadrupole moment (field-independent basis, Debye-Ang):
   XX=            -16.1338   YY=            -19.0455   ZZ=            -19.0358
   XY=              0.0000   XZ=              0.0000   YZ=              0.0000
 Traceless Quadrupole moment (field-independent basis, Debye-Ang):
   XX=              1.9379   YY=             -0.9738   ZZ=             -0.9641
   XY=              0.0000   XZ=              0.0000   YZ=              0.0000
 Octapole moment (field-independent basis, Debye-Ang**2):
  XXX=              0.0000  YYY=              0.0000  ZZZ=             -1.7240  XYY=              0.0000
  XXY=              0.0000  XXZ=             -0.5700  XZZ=              0.0000  YZZ=              0.0000
  YYZ=             -2.4264  XYZ=              0.0000
 Hexadecapole moment (field-independent basis, Debye-Ang**3):
 XXXX=            -19.1566 YYYY=            -29.4500 ZZZZ=            -72.5586 XXXY=              0.0000
 XXXZ=              0.0000 YYYX=              0.0000 YYYZ=              0.0000 ZZZX=              0.0000
 ZZZY=              0.0000 XXYY=             -8.0993 XXZZ=            -14.6819 YYZZ=            -17.7915
 XXYZ=              0.0000 YYXZ=              0.0000 ZZXY=              0.0000
 N-N= 4.291702230736D+01 E-N=-1.076638404608D+03  KE= 4.159245696763D+02
 Symmetry A1   KE= 3.468340955869D+02
 Symmetry A2   KE= 4.746890971533D-35
 Symmetry B1   KE= 3.355533839525D+01
 Symmetry B2   KE= 3.553513569416D+01
 Orbital energies and kinetic energies (alpha):
                                 1                 2
   1         O               -77.114595        106.088367
   2         O               -19.155127         29.126976
   3         O                -6.607623         15.626297
   4         O                -4.771659         14.772175
   5         O                -4.768633         14.800876
   6         O                -4.764880         14.782097
   7         O                -1.026514          2.955241
   8         O                -0.559573          2.508390
   9         O                -0.409737          2.094707
  10         O                -0.394365          2.014415
  11         O                -0.393419          2.354080
  12         O                -0.199497          1.862594
  13         V                -0.126489          1.778793
  14         V                 0.013320          1.006262
  15         V                 0.153514          0.913129
  16         V                 0.156894          0.985614
  17         V                 0.207915          1.390487
  18         V                 0.276969          1.794052
  19         V                 0.292319          1.119626
  20         V                 0.295238          1.132415
  21         V                 0.398012          1.603842
  22         V                 0.404216          1.610823
  23         V                 0.625287          2.633517
  24         V                 0.817144          2.237721
  25         V                 0.818985          2.275995
  26         V                 0.835330          2.654099
  27         V                 1.142436          3.726107
  28         V                 1.174815          1.952048
  29         V                 1.176559          1.960528
  30         V                 1.286061          2.025054
  31         V                 1.286487          2.025676
  32         V                 1.332105          2.664642
  33         V                 1.332219          2.659720
  34         V                 1.405624          5.082808
  35         V                 1.406474          5.113667
  36         V                 1.509440          4.926470
  37         V                 1.675663          2.741393
  38         V                 1.675955          3.255685
  39         V                 1.677599          3.371358
  40         V                 1.833781          3.943417
  41         V                 1.834912          3.943644
  42         V                 1.878227          4.135006
  43         V                 1.883514          4.135018
  44         V                 1.893741          4.262892
  45         V                 2.264401          3.178852
  46         V                 2.266321          3.179267
  47         V                 2.603524          4.835624
  48         V                 4.796939         11.567159
  49         V                 4.802685         11.583768
  50         V                 5.000491          6.307940
  51         V                 5.000525          6.307867
  52         V                 5.039274         11.046366
  53         V                 5.073491          6.438318
  54         V                 5.074053          6.465053
  55         V                 5.181329          6.842435
  56         V                 5.184482          6.837116
  57         V                 5.514048          9.706937
  58         V                 6.726412         10.168674
  59         V                 6.727515         10.168801
  60         V                 7.085897         17.611010
  61         V                 7.093278         10.473346
  62         V                 7.096951         10.475238
  63         V                 7.556385         18.854711
  64         V                13.705526         44.127111
  65         V                13.706943         44.111779
  66         V                14.144956         44.272136
  67         V                49.794079        123.754344
  68         V               163.355808        421.650528
 Orbital energies and kinetic energies (beta):
                                 1                 2
   1         O               -77.111148        106.093743
   2         O               -19.147315         29.139064
   3         O                -6.604387         15.621528
   4         O                -4.769846         14.769106
   5         O                -4.763203         14.779571
   6         O                -4.757115         14.785056
   7         O                -1.011664          2.922216
   8         O                -0.532873          2.545209
   9         O                -0.388746          1.999643
  10         O                -0.377482          2.291319
  11         O                -0.365932          1.991903
  12         V                -0.117056          1.756224
  13         V                -0.085635          1.664814
  14         V                 0.020148          0.980381
  15         V                 0.158727          1.007334
  16         V                 0.173223          1.079204
  17         V                 0.214710          1.389563
  18         V                 0.284850          1.839007
  19         V                 0.326357          1.117872
  20         V                 0.327729          1.157552
  21         V                 0.406682          1.613136
  22         V                 0.432635          1.606950
  23         V                 0.633655          2.599083
  24         V                 0.821528          2.286230
  25         V                 0.834578          2.303546
  26         V                 0.843643          2.698550
  27         V                 1.147587          3.722237
  28         V                 1.191078          1.952846
  29         V                 1.191792          1.975613
  30         V                 1.316728          2.137773
  31         V                 1.318871          2.052510
  32         V                 1.339189          2.517627
  33         V                 1.362025          2.568003
  34         V                 1.410220          5.151234
  35         V                 1.437515          5.194414
  36         V                 1.520425          4.925002
  37         V                 1.684447          3.879436
  38         V                 1.692848          2.735887
  39         V                 1.693153          2.743141
  40         V                 1.851947          3.947466
  41         V                 1.852716          3.959069
  42         V                 1.877901          4.133912
  43         V                 1.899186          4.134512
  44         V                 1.903988          4.249902
  45         V                 2.266407          3.178853
  46         V                 2.285812          3.178445
  47         V                 2.609708          4.836605
  48         V                 4.808562         11.585703
  49         V                 4.829762         11.591113
  50         V                 5.017776          6.312293
  51         V                 5.017803          6.313165
  52         V                 5.045926         10.862392
  53         V                 5.084987          6.438075
  54         V                 5.086859          6.674037
  55         V                 5.183574          6.839658
  56         V                 5.199271          6.835360
  57         V                 5.519847          9.683276
  58         V                 6.755565         10.172718
  59         V                 6.755720         10.171331
  60         V                 7.095254         17.650966
  61         V                 7.101185         10.475981
  62         V                 7.120659         10.476721
  63         V                 7.565474         18.805409
  64         V                13.708205         44.127370
  65         V                13.722710         44.116362
  66         V                14.147593         44.271489
  67         V                49.801806        123.748188
  68         V               163.359035        421.648214
 Total kinetic energy from orbitals= 4.159245696763D+02
                          Isotropic Fermi Contact Couplings
        Atom                 a.u.       MegaHertz       Gauss      10(-4) cm-1
     1  P(31)              0.00393       7.12367       2.54190       2.37620
     2  O(17)              0.03154     -19.11880      -6.82206      -6.37734
 --------------------------------------------------------
       Center         ----  Spin Dipole Couplings  ----
                      3XX-RR        3YY-RR        3ZZ-RR
 --------------------------------------------------------
     1   Atom       -1.160006      2.371132     -1.211126
     2   Atom       -0.647938      1.260444     -0.612506
 --------------------------------------------------------
                        XY            XZ            YZ
 --------------------------------------------------------
     1   Atom        0.000000      0.000000      0.000000
     2   Atom        0.000000      0.000000      0.000000
 --------------------------------------------------------


 ---------------------------------------------------------------------------------
              Anisotropic Spin Dipole Couplings in Principal Axis System
 ---------------------------------------------------------------------------------

       Atom             a.u.   MegaHertz   Gauss  10(-4) cm-1        Axes

              Baa    -1.2111  -261.826   -93.426   -87.336  0.0000  0.0000  1.0000
     1 P(31)  Bbb    -1.1600  -250.774   -89.483   -83.649  1.0000  0.0000  0.0000
              Bcc     2.3711   512.600   182.909   170.985  0.0000  1.0000  0.0000
 
              Baa    -0.6479    46.884    16.729    15.639  1.0000  0.0000  0.0000
     2 O(17)  Bbb    -0.6125    44.321    15.815    14.784  0.0000  0.0000  1.0000
              Bcc     1.2604   -91.205   -32.544   -30.423  0.0000  1.0000  0.0000
 

 ---------------------------------------------------------------------------------

 No NMR shielding tensors so no spin-rotation constants.
 Leave Link  601 at Wed Apr  8 12:49:24 2026, MaxMem=    33554432 cpu:         0.1
 (Enter /opt/g09/g09/l9999.exe)
 1\1\GINC-KADET27\FOpt\UB3LYP\6-311G(2df)\O1P1(2)\MDOROHUN\08-Apr-2026\
 0\\#p UB3LYP/6-311G(2df) Opt Pop=Full\\PO optymalizacja baza 6-311G(2d
 f)\\0,2\P,0.,0.,0.0101855672\O,0.,0.,1.4898144328\\Version=ES64L-G09Re
 vD.01\HF=-416.5939992\S2=0.754319\S2-1=0.\S2A=0.750011\RMSD=6.931e-09\
 RMSF=1.247e-06\Dipole=0.,0.,-0.8036502\Quadrupole=1.4407911,-0.7240036
 ,-0.7167876,0.,0.,0.\PG=C*V [C*(O1P1)]\\@


 WE TEND TO MEET ANY NEW SITUATION BY REORGANIZING. IT CAN BE A
 WONDERFUL METHOD FOR CREATING THE ILLUSION OF PROGRESS WHILE PRODUCING
 CONFUSION, INEFFICIENCY, AND DEMORALIZATION.
     -- PETRONIUS ARBITER, 210 B.C.
 Job cpu time:       0 days  0 hours  0 minutes  3.0 seconds.
 File lengths (MBytes):  RWF=      6 Int=      0 D2E=      0 Chk=      1 Scr=      1
 Normal termination of Gaussian 09 at Wed Apr  8 12:49:24 2026.
