 Entering Gaussian System, Link 0=/opt/g09/g09/g09
 Input=INPUTS/6_311G_3df.inp
 Output=INPUTS/6_311G_3df.log
 Initial command:
 /opt/g09/g09/l1.exe "/tmp/Gau-10097.inp" -scrdir="/tmp/"
 Entering Link 1 = /opt/g09/g09/l1.exe PID=     10099.
  
 Copyright (c) 1988,1990,1992,1993,1995,1998,2003,2009,2013,
            Gaussian, Inc.  All Rights Reserved.
  
 This is part of the Gaussian(R) 09 program.  It is based on
 the Gaussian(R) 03 system (copyright 2003, Gaussian, Inc.),
 the Gaussian(R) 98 system (copyright 1998, Gaussian, Inc.),
 the Gaussian(R) 94 system (copyright 1995, Gaussian, Inc.),
 the Gaussian 92(TM) system (copyright 1992, Gaussian, Inc.),
 the Gaussian 90(TM) system (copyright 1990, Gaussian, Inc.),
 the Gaussian 88(TM) system (copyright 1988, Gaussian, Inc.),
 the Gaussian 86(TM) system (copyright 1986, Carnegie Mellon
 University), and the Gaussian 82(TM) system (copyright 1983,
 Carnegie Mellon University). Gaussian is a federally registered
 trademark of Gaussian, Inc.
  
 This software contains proprietary and confidential information,
 including trade secrets, belonging to Gaussian, Inc.
  
 This software is provided under written license and may be
 used, copied, transmitted, or stored only in accord with that
 written license.
  
 The following legend is applicable only to US Government
 contracts under FAR:
  
                    RESTRICTED RIGHTS LEGEND
  
 Use, reproduction and disclosure by the US Government is
 subject to restrictions as set forth in subparagraphs (a)
 and (c) of the Commercial Computer Software - Restricted
 Rights clause in FAR 52.227-19.
  
 Gaussian, Inc.
 340 Quinnipiac St., Bldg. 40, Wallingford CT 06492
  
  
 ---------------------------------------------------------------
 Warning -- This program may not be used in any manner that
 competes with the business of Gaussian, Inc. or will provide
 assistance to any competitor of Gaussian, Inc.  The licensee
 of this program is prohibited from giving any competitor of
 Gaussian, Inc. access to this program.  By using this program,
 the user acknowledges that Gaussian, Inc. is engaged in the
 business of creating and licensing software in the field of
 computational chemistry and represents and warrants to the
 licensee that it is not a competitor of Gaussian, Inc. and that
 it will not use this program in any manner prohibited above.
 ---------------------------------------------------------------
  

 Cite this work as:
 Gaussian 09, Revision D.01,
 M. J. Frisch, G. W. Trucks, H. B. Schlegel, G. E. Scuseria, 
 M. A. Robb, J. R. Cheeseman, G. Scalmani, V. Barone, B. Mennucci, 
 G. A. Petersson, H. Nakatsuji, M. Caricato, X. Li, H. P. Hratchian, 
 A. F. Izmaylov, J. Bloino, G. Zheng, J. L. Sonnenberg, M. Hada, 
 M. Ehara, K. Toyota, R. Fukuda, J. Hasegawa, M. Ishida, T. Nakajima, 
 Y. Honda, O. Kitao, H. Nakai, T. Vreven, J. A. Montgomery, Jr., 
 J. E. Peralta, F. Ogliaro, M. Bearpark, J. J. Heyd, E. Brothers, 
 K. N. Kudin, V. N. Staroverov, T. Keith, R. Kobayashi, J. Normand, 
 K. Raghavachari, A. Rendell, J. C. Burant, S. S. Iyengar, J. Tomasi, 
 M. Cossi, N. Rega, J. M. Millam, M. Klene, J. E. Knox, J. B. Cross, 
 V. Bakken, C. Adamo, J. Jaramillo, R. Gomperts, R. E. Stratmann, 
 O. Yazyev, A. J. Austin, R. Cammi, C. Pomelli, J. W. Ochterski, 
 R. L. Martin, K. Morokuma, V. G. Zakrzewski, G. A. Voth, 
 P. Salvador, J. J. Dannenberg, S. Dapprich, A. D. Daniels, 
 O. Farkas, J. B. Foresman, J. V. Ortiz, J. Cioslowski, 
 and D. J. Fox, Gaussian, Inc., Wallingford CT, 2013.
 
 ******************************************
 Gaussian 09:  ES64L-G09RevD.01 24-Apr-2013
                 8-Apr-2026 
 ******************************************
 ----------------------------------
 #p UB3LYP/6-311G(3df) Opt Pop=Full
 ----------------------------------
 1/14=-1,18=20,19=15,26=3,38=1/1,3;
 2/9=110,12=2,17=6,18=5,40=1/2;
 3/5=4,6=6,7=6,11=2,16=1,25=1,30=1,71=1,74=-5,116=2/1,2,3;
 4//1;
 5/5=2,38=5/2;
 6/7=3,28=1/1;
 7//1,2,3,16;
 1/14=-1,18=20,19=15,26=3/3(2);
 2/9=110/2;
 99//99;
 2/9=110/2;
 3/5=4,6=6,7=6,11=2,16=1,25=1,30=1,71=1,74=-5,116=2/1,2,3;
 4/5=5,16=3,69=1/1;
 5/5=2,38=5/2;
 7//1,2,3,16;
 1/14=-1,18=20,19=15,26=3/3(-5);
 2/9=110/2;
 6/7=3,19=2,28=1/1;
 99/9=1/99;
 Leave Link    1 at Wed Apr  8 12:49:35 2026, MaxMem=           0 cpu:         0.0
 (Enter /opt/g09/g09/l101.exe)
 ---------------------------------
 PO optymalizacja baza 6-311G(3df)
 ---------------------------------
 Symbolic Z-matrix:
 Charge =  0 Multiplicity = 2
 P                     0.        0.        0. 
 O                     0.        0.        1.5 
 
 NAtoms=      2 NQM=        2 NQMF=       0 NMMI=      0 NMMIF=      0
                NMic=       0 NMicF=      0.
                    Isotopes and Nuclear Properties:
 (Nuclear quadrupole moments (NQMom) in fm**2, nuclear magnetic moments (NMagM)
  in nuclear magnetons)

  Atom         1           2
 IAtWgt=          31          16
 AtmWgt=  30.9737634  15.9949146
 NucSpn=           1           0
 AtZEff=   0.0000000   0.0000000
 NQMom=    0.0000000   0.0000000
 NMagM=    1.1316000   0.0000000
 AtZNuc=  15.0000000   8.0000000
 Leave Link  101 at Wed Apr  8 12:49:35 2026, MaxMem=    33554432 cpu:         0.1
 (Enter /opt/g09/g09/l103.exe)

 GradGradGradGradGradGradGradGradGradGradGradGradGradGradGradGradGradGrad
 Berny optimization.
 Initialization pass.
                           ----------------------------
                           !    Initial Parameters    !
                           ! (Angstroms and Degrees)  !
 --------------------------                            --------------------------
 ! Name  Definition              Value          Derivative Info.                !
 --------------------------------------------------------------------------------
 ! R1    R(1,2)                  1.5            estimate D2E/DX2                !
 --------------------------------------------------------------------------------
 Trust Radius=3.00D-01 FncErr=1.00D-07 GrdErr=1.00D-06
 Number of steps in this run=     20 maximum allowed number of steps=    100.
 GradGradGradGradGradGradGradGradGradGradGradGradGradGradGradGradGradGrad

 Leave Link  103 at Wed Apr  8 12:49:35 2026, MaxMem=    33554432 cpu:         0.0
 (Enter /opt/g09/g09/l202.exe)
                          Input orientation:                          
 ---------------------------------------------------------------------
 Center     Atomic      Atomic             Coordinates (Angstroms)
 Number     Number       Type             X           Y           Z
 ---------------------------------------------------------------------
      1         15           0        0.000000    0.000000    0.000000
      2          8           0        0.000000    0.000000    1.500000
 ---------------------------------------------------------------------
 Stoichiometry    OP(2)
 Framework group  C*V[C*(OP)]
 Deg. of freedom     1
 Full point group                 C*V     NOp   4
 Largest Abelian subgroup         C2V     NOp   4
 Largest concise Abelian subgroup C1      NOp   1
                         Standard orientation:                         
 ---------------------------------------------------------------------
 Center     Atomic      Atomic             Coordinates (Angstroms)
 Number     Number       Type             X           Y           Z
 ---------------------------------------------------------------------
      1         15           0        0.000000    0.000000    0.521739
      2          8           0        0.000000    0.000000   -0.978261
 ---------------------------------------------------------------------
 Rotational constants (GHZ):      0.0000000     21.2944835     21.2944835
 Leave Link  202 at Wed Apr  8 12:49:35 2026, MaxMem=    33554432 cpu:         0.0
 (Enter /opt/g09/g09/l301.exe)
 Standard basis: 6-311G(3df) (5D, 7F)
 Ernie: Thresh=  0.10000D-02 Tol=  0.10000D-05 Strict=F.
 There are    42 symmetry adapted cartesian basis functions of A1  symmetry.
 There are     8 symmetry adapted cartesian basis functions of A2  symmetry.
 There are    20 symmetry adapted cartesian basis functions of B1  symmetry.
 There are    20 symmetry adapted cartesian basis functions of B2  symmetry.
 There are    34 symmetry adapted basis functions of A1  symmetry.
 There are     8 symmetry adapted basis functions of A2  symmetry.
 There are    18 symmetry adapted basis functions of B1  symmetry.
 There are    18 symmetry adapted basis functions of B2  symmetry.
    78 basis functions,   122 primitive gaussians,    90 cartesian basis functions
    12 alpha electrons       11 beta electrons
       nuclear repulsion energy        42.3341766872 Hartrees.
 IExCor=  402 DFT=T Ex+Corr=B3LYP ExCW=0 ScaHFX=  0.200000
 ScaDFX=  0.800000  0.720000  1.000000  0.810000 ScalE2=  1.000000  1.000000
 IRadAn=      0 IRanWt=     -1 IRanGd=            0 ICorTp=0 IEmpDi=  4
 NAtoms=    2 NActive=    2 NUniq=    2 SFac= 1.00D+00 NAtFMM=   60 NAOKFM=F Big=F
 Integral buffers will be    131072 words long.
 Raffenetti 2 integral format.
 Two-electron integral symmetry is turned on.
 Leave Link  301 at Wed Apr  8 12:49:35 2026, MaxMem=    33554432 cpu:         0.0
 (Enter /opt/g09/g09/l302.exe)
 NPDir=0 NMtPBC=     1 NCelOv=     1 NCel=       1 NClECP=     1 NCelD=      1
         NCelK=      1 NCelE2=     1 NClLst=     1 CellRange=     0.0.
 One-electron integrals computed using PRISM.
 NBasis=    78 RedAO= T EigKep=  1.48D-02  NBF=    34     8    18    18
 NBsUse=    78 1.00D-06 EigRej= -1.00D+00 NBFU=    34     8    18    18
 Precomputing XC quadrature grid using
 IXCGrd= 4 IRadAn=           0 IRanWt=          -1 IRanGd=           0 AccXCQ= 0.00D+00.
 Generated NRdTot=       0 NPtTot=           0 NUsed=           0 NTot=          32
 NSgBfM=    90    90    90    90    90 MxSgAt=     2 MxSgA2=     2.
 Leave Link  302 at Wed Apr  8 12:49:35 2026, MaxMem=    33554432 cpu:         0.1
 (Enter /opt/g09/g09/l303.exe)
 DipDrv:  MaxL=1.
 Leave Link  303 at Wed Apr  8 12:49:35 2026, MaxMem=    33554432 cpu:         0.0
 (Enter /opt/g09/g09/l401.exe)
 ExpMin= 6.85D-02 ExpMax= 7.75D+04 ExpMxC= 2.65D+03 IAcc=2 IRadAn=         4 AccDes= 0.00D+00
 Harris functional with IExCor=  402 and IRadAn=       4 diagonalized for initial guess.
 HarFok:  IExCor=  402 AccDes= 0.00D+00 IRadAn=         4 IDoV= 1 UseB2=F ITyADJ=14
 ICtDFT=  3500011 ScaDFX=  1.000000  1.000000  1.000000  1.000000
 FoFCou: FMM=F IPFlag=           0 FMFlag=      100000 FMFlg1=           0
         NFxFlg=           0 DoJE=T BraDBF=F KetDBF=T FulRan=T
         wScrn=  0.000000 ICntrl=     500 IOpCl=  0 I1Cent=   200000004 NGrid=           0
         NMat0=    1 NMatS0=      1 NMatT0=    0 NMatD0=    1 NMtDS0=    0 NMtDT0=    0
 Petite list used in FoFCou.
 Harris En= -416.612263870452    
 JPrj=0 DoOrth=F DoCkMO=F.
 Initial guess orbital symmetries:
 Alpha Orbitals:
       Occupied  (SG) (SG) (SG) (SG) (PI) (PI) (SG) (SG) (PI) (PI)
                 (SG) (PI)
       Virtual   (PI) (SG) (PI) (PI) (DLTA) (DLTA) (SG) (PI) (PI)
                 (SG) (SG) (PI) (PI) (SG) (DLTA) (DLTA) (DLTA)
                 (DLTA) (PI) (PI) (SG) (SG) (PI) (PI) (PHI) (PHI)
                 (PI) (PI) (DLTA) (DLTA) (SG) (SG) (PI) (PI) (SG)
                 (DLTA) (DLTA) (PI) (PI) (SG) (DLTA) (DLTA) (PI)
                 (PI) (SG) (PI) (PI) (PHI) (PHI) (DLTA) (DLTA)
                 (SG) (SG) (PI) (PI) (SG) (PI) (PI) (SG) (DLTA)
                 (DLTA) (PI) (PI) (SG) (SG) (SG)
 Beta  Orbitals:
       Occupied  (SG) (SG) (SG) (SG) (PI) (PI) (SG) (SG) (PI) (PI)
                 (SG)
       Virtual   (PI) (PI) (SG) (PI) (PI) (DLTA) (DLTA) (SG) (PI)
                 (PI) (SG) (SG) (PI) (PI) (SG) (DLTA) (DLTA) (DLTA)
                 (DLTA) (PI) (PI) (SG) (SG) (PI) (PI) (PHI) (PHI)
                 (PI) (PI) (DLTA) (DLTA) (SG) (SG) (PI) (PI) (SG)
                 (DLTA) (DLTA) (PI) (PI) (SG) (DLTA) (DLTA) (PI)
                 (PI) (SG) (PI) (PI) (PHI) (PHI) (DLTA) (DLTA)
                 (SG) (SG) (PI) (PI) (SG) (PI) (PI) (SG) (DLTA)
                 (DLTA) (PI) (PI) (SG) (SG) (SG)
 Initial guess <Sx>= 0.0000 <Sy>= 0.0000 <Sz>= 0.5000 <S**2>= 0.7500 S= 0.5000
 Leave Link  401 at Wed Apr  8 12:49:35 2026, MaxMem=    33554432 cpu:         0.0
 (Enter /opt/g09/g09/l502.exe)
 UHF open shell SCF:
 Using DIIS extrapolation, IDIIS=  1040.
 Integral symmetry usage will be decided dynamically.
 Keep R1 and R2 ints in memory in symmetry-blocked form, NReq=6762550.
 IVT=       44116 IEndB=       44116 NGot=    33554432 MDV=    31053327
 LenX=    31053327 LenY=    31044786
 Requested convergence on RMS density matrix=1.00D-08 within 128 cycles.
 Requested convergence on MAX density matrix=1.00D-06.
 Requested convergence on             energy=1.00D-06.
 No special actions if energy rises.
 FoFCou: FMM=F IPFlag=           0 FMFlag=           0 FMFlg1=           0
         NFxFlg=           0 DoJE=F BraDBF=F KetDBF=F FulRan=T
         wScrn=  0.000000 ICntrl=     600 IOpCl=  0 I1Cent=           0 NGrid=           0
         NMat0=    1 NMatS0=   3081 NMatT0=    0 NMatD0=    1 NMtDS0=    0 NMtDT0=    0
 Petite list used in FoFCou.
 Integral accuracy reduced to 1.0D-05 until final iterations.

 Cycle   1  Pass 0  IDiag  1:
 E= -416.409720048099    
 DIIS: error= 5.90D-02 at cycle   1 NSaved=   1.
 NSaved= 1 IEnMin= 1 EnMin= -416.409720048099     IErMin= 1 ErrMin= 5.90D-02
 ErrMax= 5.90D-02  0.00D+00 EMaxC= 1.00D-01 BMatC= 9.80D-01 BMatP= 9.80D-01
 IDIUse=3 WtCom= 4.10D-01 WtEn= 5.90D-01
 Coeff-Com:  0.100D+01
 Coeff-En:   0.100D+01
 Coeff:      0.100D+01
 Gap=    -0.037 Goal=   None    Shift=    0.000
 Gap=     0.044 Goal=   None    Shift=    0.000
 GapD=   -0.037 DampG=0.250 DampE=0.500 DampFc=0.2500 IDamp=-1.
 Damping current iteration by 2.50D-01
 RMSDP=1.20D-02 MaxDP=3.08D-01              OVMax= 7.40D-01

 Cycle   2  Pass 0  IDiag  1:
 E= -416.433620671205     Delta-E=       -0.023900623107 Rises=F Damp=T
 DIIS: error= 1.11D-02 at cycle   2 NSaved=   2.
 NSaved= 2 IEnMin= 2 EnMin= -416.433620671205     IErMin= 2 ErrMin= 1.11D-02
 ErrMax= 1.11D-02  0.00D+00 EMaxC= 1.00D-01 BMatC= 4.50D-02 BMatP= 9.80D-01
 IDIUse=3 WtCom= 8.89D-01 WtEn= 1.11D-01
 Coeff-Com:  0.290D-02 0.997D+00
 Coeff-En:   0.432D+00 0.568D+00
 Coeff:      0.506D-01 0.949D+00
 Gap=     0.073 Goal=   None    Shift=    0.000
 Gap=     0.099 Goal=   None    Shift=    0.000
 RMSDP=1.92D-03 MaxDP=4.30D-02 DE=-2.39D-02 OVMax= 6.41D-01

 Cycle   3  Pass 0  IDiag  1:
 E= -416.585107745308     Delta-E=       -0.151487074103 Rises=F Damp=F
 DIIS: error= 1.72D-02 at cycle   3 NSaved=   3.
 NSaved= 3 IEnMin= 3 EnMin= -416.585107745308     IErMin= 2 ErrMin= 1.11D-02
 ErrMax= 1.72D-02  0.00D+00 EMaxC= 1.00D-01 BMatC= 4.75D-02 BMatP= 4.50D-02
 IDIUse=3 WtCom= 8.28D-01 WtEn= 1.72D-01
 Coeff-Com: -0.149D+00 0.405D+00 0.745D+00
 Coeff-En:   0.000D+00 0.000D+00 0.100D+01
 Coeff:     -0.124D+00 0.335D+00 0.789D+00
 Gap=     0.068 Goal=   None    Shift=    0.000
 Gap=     0.230 Goal=   None    Shift=    0.000
 RMSDP=1.33D-03 MaxDP=2.58D-02 DE=-1.51D-01 OVMax= 7.14D-02

 Cycle   4  Pass 0  IDiag  1:
 E= -416.597784559603     Delta-E=       -0.012676814296 Rises=F Damp=F
 DIIS: error= 4.51D-03 at cycle   4 NSaved=   4.
 NSaved= 4 IEnMin= 4 EnMin= -416.597784559603     IErMin= 4 ErrMin= 4.51D-03
 ErrMax= 4.51D-03  0.00D+00 EMaxC= 1.00D-01 BMatC= 5.10D-03 BMatP= 4.50D-02
 IDIUse=3 WtCom= 9.55D-01 WtEn= 4.51D-02
 Coeff-Com:  0.643D-01-0.988D-01 0.337D-01 0.100D+01
 Coeff-En:   0.000D+00 0.000D+00 0.546D-01 0.945D+00
 Coeff:      0.614D-01-0.944D-01 0.347D-01 0.998D+00
 Gap=     0.073 Goal=   None    Shift=    0.000
 Gap=     0.239 Goal=   None    Shift=    0.000
 RMSDP=1.38D-04 MaxDP=4.17D-03 DE=-1.27D-02 OVMax= 6.71D-03

 Cycle   5  Pass 0  IDiag  1:
 E= -416.598441184118     Delta-E=       -0.000656624515 Rises=F Damp=F
 DIIS: error= 2.89D-03 at cycle   5 NSaved=   5.
 NSaved= 5 IEnMin= 5 EnMin= -416.598441184118     IErMin= 5 ErrMin= 2.89D-03
 ErrMax= 2.89D-03  0.00D+00 EMaxC= 1.00D-01 BMatC= 1.28D-03 BMatP= 5.10D-03
 IDIUse=3 WtCom= 9.71D-01 WtEn= 2.89D-02
 Coeff-Com:  0.287D-01-0.456D-01 0.500D-01 0.124D+00 0.843D+00
 Coeff-En:   0.000D+00 0.000D+00 0.000D+00 0.000D+00 0.100D+01
 Coeff:      0.278D-01-0.443D-01 0.486D-01 0.120D+00 0.847D+00
 Gap=     0.073 Goal=   None    Shift=    0.000
 Gap=     0.241 Goal=   None    Shift=    0.000
 RMSDP=1.12D-04 MaxDP=2.58D-03 DE=-6.57D-04 OVMax= 7.03D-03

 Cycle   6  Pass 0  IDiag  1:
 E= -416.598731440338     Delta-E=       -0.000290256219 Rises=F Damp=F
 DIIS: error= 8.01D-04 at cycle   6 NSaved=   6.
 NSaved= 6 IEnMin= 6 EnMin= -416.598731440338     IErMin= 6 ErrMin= 8.01D-04
 ErrMax= 8.01D-04  0.00D+00 EMaxC= 1.00D-01 BMatC= 9.30D-05 BMatP= 1.28D-03
 IDIUse=3 WtCom= 9.92D-01 WtEn= 8.01D-03
 Coeff-Com: -0.662D-03 0.345D-04 0.305D-01-0.755D-01 0.452D-01 0.100D+01
 Coeff-En:   0.000D+00 0.000D+00 0.000D+00 0.000D+00 0.000D+00 0.100D+01
 Coeff:     -0.656D-03 0.342D-04 0.302D-01-0.748D-01 0.449D-01 0.100D+01
 Gap=     0.073 Goal=   None    Shift=    0.000
 Gap=     0.242 Goal=   None    Shift=    0.000
 RMSDP=4.41D-05 MaxDP=1.04D-03 DE=-2.90D-04 OVMax= 3.22D-03

 Cycle   7  Pass 0  IDiag  1:
 E= -416.598754508716     Delta-E=       -0.000023068379 Rises=F Damp=F
 DIIS: error= 1.02D-04 at cycle   7 NSaved=   7.
 NSaved= 7 IEnMin= 7 EnMin= -416.598754508716     IErMin= 7 ErrMin= 1.02D-04
 ErrMax= 1.02D-04  0.00D+00 EMaxC= 1.00D-01 BMatC= 1.33D-06 BMatP= 9.30D-05
 IDIUse=3 WtCom= 9.99D-01 WtEn= 1.02D-03
 Coeff-Com: -0.150D-02 0.197D-02 0.129D-02-0.926D-02-0.476D-01 0.208D+00
 Coeff-Com:  0.848D+00
 Coeff-En:   0.000D+00 0.000D+00 0.000D+00 0.000D+00 0.000D+00 0.000D+00
 Coeff-En:   0.100D+01
 Coeff:     -0.150D-02 0.197D-02 0.129D-02-0.925D-02-0.476D-01 0.207D+00
 Coeff:      0.848D+00
 Gap=     0.073 Goal=   None    Shift=    0.000
 Gap=     0.241 Goal=   None    Shift=    0.000
 RMSDP=6.09D-06 MaxDP=1.61D-04 DE=-2.31D-05 OVMax= 3.75D-04

 Initial convergence to 1.0D-05 achieved.  Increase integral accuracy.
 Cycle   8  Pass 1  IDiag  1:
 E= -416.598740162729     Delta-E=        0.000014345987 Rises=F Damp=F
 DIIS: error= 8.90D-05 at cycle   1 NSaved=   1.
 NSaved= 1 IEnMin= 1 EnMin= -416.598740162729     IErMin= 1 ErrMin= 8.90D-05
 ErrMax= 8.90D-05  0.00D+00 EMaxC= 1.00D-01 BMatC= 1.95D-06 BMatP= 1.95D-06
 IDIUse=1 WtCom= 1.00D+00 WtEn= 0.00D+00
 Coeff-Com:  0.100D+01
 Coeff:      0.100D+01
 Gap=     0.073 Goal=   None    Shift=    0.000
 Gap=     0.241 Goal=   None    Shift=    0.000
 RMSDP=6.09D-06 MaxDP=1.61D-04 DE= 1.43D-05 OVMax= 7.35D-04

 Cycle   9  Pass 1  IDiag  1:
 E= -416.598739719395     Delta-E=        0.000000443334 Rises=F Damp=F
 DIIS: error= 1.43D-04 at cycle   2 NSaved=   2.
 NSaved= 2 IEnMin= 1 EnMin= -416.598740162729     IErMin= 1 ErrMin= 8.90D-05
 ErrMax= 1.43D-04  0.00D+00 EMaxC= 1.00D-01 BMatC= 3.46D-06 BMatP= 1.95D-06
 IDIUse=3 WtCom= 4.55D-01 WtEn= 5.45D-01
 Coeff-Com:  0.602D+00 0.398D+00
 Coeff-En:   0.749D+00 0.251D+00
 Coeff:      0.682D+00 0.318D+00
 Gap=     0.073 Goal=   None    Shift=    0.000
 Gap=     0.241 Goal=   None    Shift=    0.000
 RMSDP=6.88D-06 MaxDP=1.65D-04 DE= 4.43D-07 OVMax= 5.26D-04

 Cycle  10  Pass 1  IDiag  1:
 E= -416.598740374409     Delta-E=       -0.000000655014 Rises=F Damp=F
 DIIS: error= 4.25D-05 at cycle   3 NSaved=   3.
 NSaved= 3 IEnMin= 3 EnMin= -416.598740374409     IErMin= 3 ErrMin= 4.25D-05
 ErrMax= 4.25D-05  0.00D+00 EMaxC= 1.00D-01 BMatC= 2.51D-07 BMatP= 1.95D-06
 IDIUse=1 WtCom= 1.00D+00 WtEn= 0.00D+00
 Coeff-Com: -0.203D-01 0.204D+00 0.817D+00
 Coeff:     -0.203D-01 0.204D+00 0.817D+00
 Gap=     0.073 Goal=   None    Shift=    0.000
 Gap=     0.241 Goal=   None    Shift=    0.000
 RMSDP=2.05D-06 MaxDP=6.93D-05 DE=-6.55D-07 OVMax= 2.19D-04

 Cycle  11  Pass 1  IDiag  1:
 E= -416.598740444499     Delta-E=       -0.000000070090 Rises=F Damp=F
 DIIS: error= 9.91D-06 at cycle   4 NSaved=   4.
 NSaved= 4 IEnMin= 4 EnMin= -416.598740444499     IErMin= 4 ErrMin= 9.91D-06
 ErrMax= 9.91D-06  0.00D+00 EMaxC= 1.00D-01 BMatC= 8.88D-09 BMatP= 2.51D-07
 IDIUse=1 WtCom= 1.00D+00 WtEn= 0.00D+00
 Coeff-Com: -0.141D-01 0.201D-01 0.704D-01 0.924D+00
 Coeff:     -0.141D-01 0.201D-01 0.704D-01 0.924D+00
 Gap=     0.073 Goal=   None    Shift=    0.000
 Gap=     0.241 Goal=   None    Shift=    0.000
 RMSDP=1.07D-06 MaxDP=3.20D-05 DE=-7.01D-08 OVMax= 9.66D-05

 Cycle  12  Pass 1  IDiag  1:
 E= -416.598740455567     Delta-E=       -0.000000011068 Rises=F Damp=F
 DIIS: error= 7.54D-06 at cycle   5 NSaved=   5.
 NSaved= 5 IEnMin= 5 EnMin= -416.598740455567     IErMin= 5 ErrMin= 7.54D-06
 ErrMax= 7.54D-06  0.00D+00 EMaxC= 1.00D-01 BMatC= 3.59D-09 BMatP= 8.88D-09
 IDIUse=1 WtCom= 1.00D+00 WtEn= 0.00D+00
 Coeff-Com:  0.166D-01-0.125D+00-0.425D+00-0.378D+00 0.191D+01
 Coeff:      0.166D-01-0.125D+00-0.425D+00-0.378D+00 0.191D+01
 Gap=     0.073 Goal=   None    Shift=    0.000
 Gap=     0.241 Goal=   None    Shift=    0.000
 RMSDP=1.89D-06 MaxDP=6.48D-05 DE=-1.11D-08 OVMax= 1.92D-04

 Cycle  13  Pass 1  IDiag  1:
 E= -416.598740464382     Delta-E=       -0.000000008815 Rises=F Damp=F
 DIIS: error= 8.64D-07 at cycle   6 NSaved=   6.
 NSaved= 6 IEnMin= 6 EnMin= -416.598740464382     IErMin= 6 ErrMin= 8.64D-07
 ErrMax= 8.64D-07  0.00D+00 EMaxC= 1.00D-01 BMatC= 8.61D-11 BMatP= 3.59D-09
 IDIUse=1 WtCom= 1.00D+00 WtEn= 0.00D+00
 Coeff-Com:  0.360D-02-0.222D-01-0.741D-01-0.101D+00 0.306D+00 0.888D+00
 Coeff:      0.360D-02-0.222D-01-0.741D-01-0.101D+00 0.306D+00 0.888D+00
 Gap=     0.073 Goal=   None    Shift=    0.000
 Gap=     0.241 Goal=   None    Shift=    0.000
 RMSDP=1.63D-07 MaxDP=5.60D-06 DE=-8.82D-09 OVMax= 1.62D-05

 Cycle  14  Pass 1  IDiag  1:
 E= -416.598740464471     Delta-E=       -0.000000000089 Rises=F Damp=F
 DIIS: error= 3.23D-07 at cycle   7 NSaved=   7.
 NSaved= 7 IEnMin= 7 EnMin= -416.598740464471     IErMin= 7 ErrMin= 3.23D-07
 ErrMax= 3.23D-07  0.00D+00 EMaxC= 1.00D-01 BMatC= 1.55D-11 BMatP= 8.61D-11
 IDIUse=1 WtCom= 1.00D+00 WtEn= 0.00D+00
 Coeff-Com: -0.191D-02 0.154D-01 0.489D-01 0.388D-01-0.222D+00 0.864D-01
 Coeff-Com:  0.103D+01
 Coeff:     -0.191D-02 0.154D-01 0.489D-01 0.388D-01-0.222D+00 0.864D-01
 Coeff:      0.103D+01
 Gap=     0.073 Goal=   None    Shift=    0.000
 Gap=     0.241 Goal=   None    Shift=    0.000
 RMSDP=4.97D-08 MaxDP=1.46D-06 DE=-8.88D-11 OVMax= 4.29D-06

 Cycle  15  Pass 1  IDiag  1:
 E= -416.598740464480     Delta-E=       -0.000000000009 Rises=F Damp=F
 DIIS: error= 7.82D-08 at cycle   8 NSaved=   8.
 NSaved= 8 IEnMin= 8 EnMin= -416.598740464480     IErMin= 8 ErrMin= 7.82D-08
 ErrMax= 7.82D-08  0.00D+00 EMaxC= 1.00D-01 BMatC= 1.26D-12 BMatP= 1.55D-11
 IDIUse=1 WtCom= 1.00D+00 WtEn= 0.00D+00
 Coeff-Com: -0.325D-03 0.220D-02 0.608D-02 0.972D-02-0.259D-01-0.106D+00
 Coeff-Com:  0.234D-01 0.109D+01
 Coeff:     -0.325D-03 0.220D-02 0.608D-02 0.972D-02-0.259D-01-0.106D+00
 Coeff:      0.234D-01 0.109D+01
 Gap=     0.073 Goal=   None    Shift=    0.000
 Gap=     0.241 Goal=   None    Shift=    0.000
 RMSDP=1.36D-08 MaxDP=3.32D-07 DE=-9.04D-12 OVMax= 1.03D-06

 Cycle  16  Pass 1  IDiag  1:
 E= -416.598740464480     Delta-E=       -0.000000000001 Rises=F Damp=F
 DIIS: error= 1.84D-08 at cycle   9 NSaved=   9.
 NSaved= 9 IEnMin= 9 EnMin= -416.598740464480     IErMin= 9 ErrMin= 1.84D-08
 ErrMax= 1.84D-08  0.00D+00 EMaxC= 1.00D-01 BMatC= 5.38D-14 BMatP= 1.26D-12
 IDIUse=1 WtCom= 1.00D+00 WtEn= 0.00D+00
 Coeff-Com:  0.645D-04-0.644D-03-0.208D-02-0.681D-03 0.948D-02-0.190D-01
 Coeff-Com: -0.733D-01 0.187D+00 0.900D+00
 Coeff:      0.645D-04-0.644D-03-0.208D-02-0.681D-03 0.948D-02-0.190D-01
 Coeff:     -0.733D-01 0.187D+00 0.900D+00
 Gap=     0.073 Goal=   None    Shift=    0.000
 Gap=     0.241 Goal=   None    Shift=    0.000
 RMSDP=1.99D-09 MaxDP=5.48D-08 DE=-6.82D-13 OVMax= 2.04D-07

 SCF Done:  E(UB3LYP) =  -416.598740464     A.U. after   16 cycles
            NFock= 16  Conv=0.20D-08     -V/T= 2.0019
 <Sx>= 0.0000 <Sy>= 0.0000 <Sz>= 0.5000 <S**2>= 0.7546 S= 0.5023
 <L.S>= 0.000000000000E+00
 KE= 4.158275501897D+02 PE=-1.075334276008D+03 EE= 2.005738086669D+02
 Annihilation of the first spin contaminant:
 S**2 before annihilation     0.7546,   after     0.7500
 Leave Link  502 at Wed Apr  8 12:49:35 2026, MaxMem=    33554432 cpu:         0.5
 (Enter /opt/g09/g09/l601.exe)
 Copying SCF densities to generalized density rwf, IOpCl= 1 IROHF=0.

 **********************************************************************

            Population analysis using the SCF density.

 **********************************************************************

 Orbital symmetries:
 Alpha Orbitals:
       Occupied  (SG) (SG) (SG) (PI) (PI) (SG) (SG) (SG) (PI) (SG)
                 (PI) (PI)
       Virtual   (PI) (SG) (PI) (PI) (?A) (?A) (?A) (PI) (PI) (SG)
                 (SG) (PI) (PI) (?B) (?B) (?B) (DLTA) (DLTA) (PI)
                 (PI) (SG) (SG) (PI) (PI) (PHI) (PHI) (PI) (PI)
                 (DLTA) (DLTA) (SG) (SG) (PI) (PI) (SG) (DLTA)
                 (DLTA) (PI) (PI) (SG) (DLTA) (DLTA) (PI) (PI)
                 (SG) (PI) (PI) (PHI) (PHI) (DLTA) (DLTA) (SG)
                 (SG) (PI) (PI) (SG) (PI) (PI) (SG) (DLTA) (DLTA)
                 (PI) (PI) (SG) (SG) (SG)
 Beta  Orbitals:
       Occupied  (SG) (SG) (SG) (PI) (SG) (PI) (SG) (SG) (PI) (SG)
                 (PI)
       Virtual   (PI) (PI) (?A) (PI) (PI) (?A) (?A) (?A) (PI) (PI)
                 (SG) (SG) (PI) (PI) (?B) (?B) (?B) (?A) (?A) (PI)
                 (?A) (PI) (?A) (?C) (?C) (?C) (?C) (?C) (?C) (?D)
                 (?D) (?D) (SG) (PI) (PI) (SG) (?E) (?E) (PI) (PI)
                 (?E) (?F) (?F) (PI) (PI) (?F) (?G) (?G) (?G) (?G)
                 (DLTA) (DLTA) (SG) (SG) (PI) (PI) (SG) (PI) (PI)
                 (SG) (DLTA) (DLTA) (PI) (PI) (SG) (SG) (SG)
 Unable to determine electronic state:  partially filled degenerate orbitals.
 Alpha  occ. eigenvalues --  -77.12057 -19.16066  -6.61230  -4.77630  -4.77344
 Alpha  occ. eigenvalues --   -4.76972  -1.02159  -0.56353  -0.40732  -0.39464
 Alpha  occ. eigenvalues --   -0.39224  -0.20554
 Alpha virt. eigenvalues --   -0.13280   0.00405   0.15209   0.15528   0.15673
 Alpha virt. eigenvalues --    0.15879   0.17645   0.24383   0.24847   0.28683
 Alpha virt. eigenvalues --    0.40110   0.65742   0.65759   0.74861   0.78287
 Alpha virt. eigenvalues --    0.78365   0.82707   0.82905   0.92082   0.92444
 Alpha virt. eigenvalues --    0.92860   1.07228   1.19946   1.20241   1.28400
 Alpha virt. eigenvalues --    1.28452   1.37460   1.37469   1.43282   1.43483
 Alpha virt. eigenvalues --    1.52616   1.61748   1.73479   1.73544   2.08528
 Alpha virt. eigenvalues --    3.34506   3.34568   3.39117   3.39174   3.49308
 Alpha virt. eigenvalues --    3.98928   3.99016   4.12267   4.13042   4.26715
 Alpha virt. eigenvalues --    4.88839   4.89343   5.00048   5.00051   5.10235
 Alpha virt. eigenvalues --    5.10270   5.36438   5.51529   5.57386   5.57736
 Alpha virt. eigenvalues --    7.46439  13.70575  13.70677  13.93666  14.22855
 Alpha virt. eigenvalues --   14.22953  14.29352  14.30056  14.75654  49.89166
 Alpha virt. eigenvalues --  163.40666
  Beta  occ. eigenvalues --  -77.11709 -19.15327  -6.60901  -4.77445  -4.76799
  Beta  occ. eigenvalues --   -4.76176  -1.00731  -0.53683  -0.38693  -0.37894
  Beta  occ. eigenvalues --   -0.36495
  Beta virt. eigenvalues --   -0.12354  -0.09221   0.01101   0.15701   0.17136
  Beta virt. eigenvalues --    0.17479   0.17840   0.18834   0.25003   0.26761
  Beta virt. eigenvalues --    0.29172   0.41023   0.65813   0.67466   0.75044
  Beta virt. eigenvalues --    0.78905   0.78976   0.85220   0.85306   0.92686
  Beta virt. eigenvalues --    0.93975   0.94224   1.07966   1.20019   1.21961
  Beta virt. eigenvalues --    1.31762   1.31795   1.38019   1.40744   1.45157
  Beta virt. eigenvalues --    1.45277   1.53322   1.62345   1.73589   1.75795
  Beta virt. eigenvalues --    2.09305   3.36462   3.36515   3.39406   3.41111
  Beta virt. eigenvalues --    3.50200   3.99862   3.99908   4.12306   4.13946
  Beta virt. eigenvalues --    4.27408   4.89859   4.91865   5.01710   5.01715
  Beta virt. eigenvalues --    5.11349   5.11367   5.37207   5.52252   5.57617
  Beta virt. eigenvalues --    5.59280   7.46926  13.70852  13.72316  13.94210
  Beta virt. eigenvalues --   14.25768  14.25775  14.30428  14.32184  14.76583
  Beta virt. eigenvalues --   49.89895 163.40986
     Alpha Molecular Orbital Coefficients:
                           1         2         3         4         5
                           O         O         O         O         O
     Eigenvalues --   -77.12057 -19.16066  -6.61230  -4.77630  -4.77344
   1 1   P  1S          0.41906   0.00000  -0.12007   0.00000   0.00000
   2        2S          0.64596  -0.00003  -0.31242   0.00000   0.00000
   3        3S          0.01427   0.00029   0.51254   0.00000   0.00000
   4        4S         -0.00466  -0.00082   0.59381   0.00000   0.00000
   5        5S          0.00249   0.00303   0.06388   0.00000   0.00000
   6        6S          0.00014   0.00376  -0.00372   0.00000   0.00000
   7        7PX         0.00000   0.00000   0.00000   0.40782   0.00000
   8        7PY         0.00000   0.00000   0.00000   0.00000   0.40866
   9        7PZ        -0.00010   0.00001  -0.00148   0.00000   0.00000
  10        8PX         0.00000   0.00000   0.00000   0.68098   0.00000
  11        8PY         0.00000   0.00000   0.00000   0.00000   0.68069
  12        8PZ         0.00009   0.00001  -0.00252   0.00000   0.00000
  13        9PX         0.00000   0.00000   0.00000   0.05600   0.00000
  14        9PY         0.00000   0.00000   0.00000   0.00000   0.05499
  15        9PZ        -0.00007  -0.00027   0.00050   0.00000   0.00000
  16       10PX         0.00000   0.00000   0.00000  -0.00396   0.00000
  17       10PY         0.00000   0.00000   0.00000   0.00000  -0.00342
  18       10PZ        -0.00147  -0.00436  -0.01973   0.00000   0.00000
  19       11PX         0.00000   0.00000   0.00000   0.00088   0.00000
  20       11PY         0.00000   0.00000   0.00000   0.00000   0.00076
  21       11PZ         0.00014  -0.00091   0.00235   0.00000   0.00000
  22       12D 0       -0.00012   0.00007  -0.00149   0.00000   0.00000
  23       12D+1        0.00000   0.00000   0.00000  -0.00043   0.00000
  24       12D-1        0.00000   0.00000   0.00000   0.00000  -0.00057
  25       12D+2        0.00000   0.00000   0.00067   0.00000   0.00000
  26       12D-2        0.00000   0.00000   0.00000   0.00000   0.00000
  27       13D 0        0.00058   0.00059   0.00656   0.00000   0.00000
  28       13D+1        0.00000   0.00000   0.00000   0.00033   0.00000
  29       13D-1        0.00000   0.00000   0.00000   0.00000   0.00050
  30       13D+2        0.00000   0.00000  -0.00018   0.00000   0.00000
  31       13D-2        0.00000   0.00000   0.00000   0.00000   0.00000
  32       14D 0        0.00017   0.00131   0.00230   0.00000   0.00000
  33       14D+1        0.00000   0.00000   0.00000   0.00042   0.00000
  34       14D-1        0.00000   0.00000   0.00000   0.00000   0.00037
  35       14D+2        0.00000   0.00000   0.00000   0.00000   0.00000
  36       14D-2        0.00000   0.00000   0.00000   0.00000   0.00000
  37       15F 0       -0.00018   0.00054  -0.00229   0.00000   0.00000
  38       15F+1        0.00000   0.00000   0.00000  -0.00035   0.00000
  39       15F-1        0.00000   0.00000   0.00000   0.00000  -0.00034
  40       15F+2        0.00000   0.00000  -0.00007   0.00000   0.00000
  41       15F-2        0.00000   0.00000   0.00000   0.00000   0.00000
  42       15F+3        0.00000   0.00000   0.00000  -0.00001   0.00000
  43       15F-3        0.00000   0.00000   0.00000   0.00000   0.00001
  44 2   O  1S          0.00001   0.55121  -0.00017   0.00000   0.00000
  45        2S         -0.00002   0.46982  -0.00038   0.00000   0.00000
  46        2PX         0.00000   0.00000   0.00000   0.00008   0.00000
  47        2PY         0.00000   0.00000   0.00000   0.00000   0.00010
  48        2PZ         0.00008   0.00094   0.00046   0.00000   0.00000
  49        3S          0.00036   0.01410   0.00425   0.00000   0.00000
  50        3PX         0.00000   0.00000   0.00000   0.00013   0.00000
  51        3PY         0.00000   0.00000   0.00000   0.00000   0.00019
  52        3PZ        -0.00019   0.00062  -0.00099   0.00000   0.00000
  53        4S         -0.00182  -0.01144  -0.02208   0.00000   0.00000
  54        4PX         0.00000   0.00000   0.00000   0.00077   0.00000
  55        4PY         0.00000   0.00000   0.00000   0.00000   0.00071
  56        4PZ        -0.00134  -0.00486  -0.01772   0.00000   0.00000
  57        5D 0        0.00004  -0.00008   0.00004   0.00000   0.00000
  58        5D+1        0.00000   0.00000   0.00000   0.00000   0.00000
  59        5D-1        0.00000   0.00000   0.00000   0.00000   0.00000
  60        5D+2        0.00000  -0.00012   0.00000   0.00000   0.00000
  61        5D-2        0.00000   0.00000   0.00000   0.00000   0.00000
  62        6D 0       -0.00013   0.00025  -0.00030   0.00000   0.00000
  63        6D+1        0.00000   0.00000   0.00000   0.00013   0.00000
  64        6D-1        0.00000   0.00000   0.00000   0.00000   0.00015
  65        6D+2        0.00000  -0.00003   0.00000   0.00000   0.00000
  66        6D-2        0.00000   0.00000   0.00000   0.00000   0.00000
  67        7D 0       -0.00061  -0.00202  -0.00775   0.00000   0.00000
  68        7D+1        0.00000   0.00000   0.00000   0.00052   0.00000
  69        7D-1        0.00000   0.00000   0.00000   0.00000   0.00049
  70        7D+2        0.00000   0.00000   0.00000   0.00000   0.00000
  71        7D-2        0.00000   0.00000   0.00000   0.00000   0.00000
  72        8F 0       -0.00012  -0.00019  -0.00022   0.00000   0.00000
  73        8F+1        0.00000   0.00000   0.00000   0.00012   0.00000
  74        8F-1        0.00000   0.00000   0.00000   0.00000   0.00014
  75        8F+2        0.00000   0.00000   0.00000   0.00000   0.00000
  76        8F-2        0.00000   0.00000   0.00000   0.00000   0.00000
  77        8F+3        0.00000   0.00000   0.00000   0.00000   0.00000
  78        8F-3        0.00000   0.00000   0.00000   0.00000   0.00000
                           6         7         8         9        10
                           O         O         O         O         O
     Eigenvalues --    -4.76972  -1.02159  -0.56353  -0.40732  -0.39464
   1 1   P  1S         -0.00044   0.01301   0.03097   0.00000   0.00994
   2        2S         -0.00114   0.03578   0.08542   0.00000   0.02740
   3        3S          0.00168  -0.07511  -0.18202   0.00000  -0.05837
   4        4S          0.00283  -0.13069  -0.33383   0.00000  -0.11046
   5        5S         -0.00096   0.19715   0.56818   0.00000   0.16903
   6        6S          0.00130   0.04884   0.38210   0.00000   0.40294
   7        7PX         0.00000   0.00000   0.00000   0.00000   0.00000
   8        7PY         0.00000   0.00000   0.00000  -0.05735   0.00000
   9        7PZ         0.40824   0.03650  -0.00875   0.00000  -0.07727
  10        8PX         0.00000   0.00000   0.00000   0.00000   0.00000
  11        8PY         0.00000   0.00000   0.00000  -0.09872   0.00000
  12        8PZ         0.68060   0.06435  -0.01495   0.00000  -0.13388
  13        9PX         0.00000   0.00000   0.00000   0.00000   0.00000
  14        9PY         0.00000   0.00000   0.00000   0.11743   0.00000
  15        9PZ         0.05590  -0.07263   0.01048   0.00000   0.17276
  16       10PX         0.00000   0.00000   0.00000   0.00000   0.00000
  17       10PY         0.00000   0.00000   0.00000   0.27219   0.00000
  18       10PZ        -0.00376  -0.05406   0.11570   0.00000   0.29071
  19       11PX         0.00000   0.00000   0.00000   0.00000   0.00000
  20       11PY         0.00000   0.00000   0.00000   0.11137   0.00000
  21       11PZ         0.00025  -0.00047   0.03469   0.00000   0.03618
  22       12D 0       -0.00045   0.01300   0.00118   0.00000  -0.01716
  23       12D+1        0.00000   0.00000   0.00000   0.00000   0.00000
  24       12D-1        0.00000   0.00000   0.00000  -0.01219   0.00000
  25       12D+2        0.00004   0.00003  -0.00018   0.00000  -0.00037
  26       12D-2        0.00000   0.00000   0.00000   0.00000   0.00000
  27       13D 0       -0.00052   0.04357  -0.01994   0.00000  -0.06415
  28       13D+1        0.00000   0.00000   0.00000   0.00000   0.00000
  29       13D-1        0.00000   0.00000   0.00000  -0.05178   0.00000
  30       13D+2       -0.00014  -0.00011  -0.00570   0.00000  -0.00563
  31       13D-2        0.00000   0.00000   0.00000   0.00000   0.00000
  32       14D 0        0.00088   0.00239  -0.02487   0.00000   0.01370
  33       14D+1        0.00000   0.00000   0.00000   0.00000   0.00000
  34       14D-1        0.00000   0.00000   0.00000  -0.02833   0.00000
  35       14D+2        0.00000   0.00021  -0.00519   0.00000  -0.00559
  36       14D-2        0.00000   0.00000   0.00000   0.00000   0.00000
  37       15F 0       -0.00011  -0.01604  -0.00188   0.00000   0.00693
  38       15F+1        0.00000   0.00000   0.00000   0.00000   0.00000
  39       15F-1        0.00000   0.00000   0.00000   0.01717   0.00000
  40       15F+2        0.00001  -0.00138  -0.00317   0.00000  -0.00144
  41       15F-2        0.00000   0.00000   0.00000   0.00000   0.00000
  42       15F+3        0.00000   0.00000   0.00000   0.00000   0.00000
  43       15F-3        0.00000   0.00000   0.00000   0.00033   0.00000
  44 2   O  1S          0.00047  -0.11503   0.05188   0.00000  -0.01977
  45        2S          0.00067  -0.18428   0.08457   0.00000  -0.03231
  46        2PX         0.00000   0.00000   0.00000   0.00000   0.00000
  47        2PY         0.00000   0.00000   0.00000   0.25837   0.00000
  48        2PZ        -0.00064   0.05930   0.12136   0.00000  -0.23546
  49        3S         -0.00156   0.53348  -0.26763   0.00000   0.10319
  50        3PX         0.00000   0.00000   0.00000   0.00000   0.00000
  51        3PY         0.00000   0.00000   0.00000   0.37371   0.00000
  52        3PZ        -0.00142   0.08957   0.16993   0.00000  -0.33247
  53        4S         -0.00175   0.40468  -0.22517   0.00000   0.10124
  54        4PX         0.00000   0.00000   0.00000   0.00000   0.00000
  55        4PY         0.00000   0.00000   0.00000   0.32543   0.00000
  56        4PZ        -0.00004   0.06845   0.17107   0.00000  -0.30198
  57        5D 0        0.00000   0.00052   0.00113   0.00000  -0.00121
  58        5D+1        0.00000   0.00000   0.00000   0.00000   0.00000
  59        5D-1        0.00000   0.00000   0.00000   0.00111   0.00000
  60        5D+2        0.00000  -0.00036   0.00021   0.00000  -0.00006
  61        5D-2        0.00000   0.00000   0.00000   0.00000   0.00000
  62        6D 0       -0.00073   0.00938   0.01006   0.00000  -0.01654
  63        6D+1        0.00000   0.00000   0.00000   0.00000   0.00000
  64        6D-1        0.00000   0.00000   0.00000   0.01649   0.00000
  65        6D+2        0.00000  -0.00058   0.00040   0.00000  -0.00039
  66        6D-2        0.00000   0.00000   0.00000   0.00000   0.00000
  67        7D 0        0.00065   0.01745   0.02850   0.00000  -0.01148
  68        7D+1        0.00000   0.00000   0.00000   0.00000   0.00000
  69        7D-1        0.00000   0.00000   0.00000   0.01893   0.00000
  70        7D+2        0.00000   0.00082   0.00119   0.00000  -0.00006
  71        7D-2        0.00000   0.00000   0.00000   0.00000   0.00000
  72        8F 0       -0.00032   0.00381   0.00230   0.00000  -0.00375
  73        8F+1        0.00000   0.00000   0.00000   0.00000   0.00000
  74        8F-1        0.00000   0.00000   0.00000   0.00419   0.00000
  75        8F+2        0.00000   0.00031   0.00000   0.00000  -0.00017
  76        8F-2        0.00000   0.00000   0.00000   0.00000   0.00000
  77        8F+3        0.00000   0.00000   0.00000   0.00000   0.00000
  78        8F-3        0.00000   0.00000   0.00000   0.00019   0.00000
                          11        12        13        14        15
                           O         O         V         V         V
     Eigenvalues --    -0.39224  -0.20554  -0.13280   0.00405   0.15209
   1 1   P  1S          0.00000   0.00000   0.00000  -0.00635   0.00000
   2        2S          0.00000   0.00000   0.00000  -0.01774   0.00000
   3        3S          0.00000   0.00000   0.00000   0.04005   0.00000
   4        4S          0.00000   0.00000   0.00000   0.06727   0.00000
   5        5S          0.00000   0.00000   0.00000  -0.09408   0.00000
   6        6S          0.00000   0.00000   0.00000  -0.32570   0.00000
   7        7PX        -0.05800   0.00000  -0.08952   0.00000   0.00000
   8        7PY         0.00000  -0.09370   0.00000   0.00000   0.07693
   9        7PZ         0.00000   0.00000   0.00000  -0.04165   0.00000
  10        8PX        -0.09964   0.00000  -0.15131   0.00000   0.00000
  11        8PY         0.00000  -0.15854   0.00000   0.00000   0.11996
  12        8PZ         0.00000   0.00000   0.00000  -0.07067   0.00000
  13        9PX         0.11676   0.00000   0.17670   0.00000   0.00000
  14        9PY         0.00000   0.18795   0.00000   0.00000  -0.10079
  15        9PZ         0.00000   0.00000   0.00000   0.08640   0.00000
  16       10PX         0.27516   0.00000   0.53425   0.00000   0.00000
  17       10PY         0.00000   0.56747   0.00000   0.00000  -0.85140
  18       10PZ         0.00000   0.00000   0.00000   0.23393   0.00000
  19       11PX         0.12055   0.00000   0.37327   0.00000   0.00000
  20       11PY         0.00000   0.32620   0.00000   0.00000   1.21488
  21       11PZ         0.00000   0.00000   0.00000   0.77063   0.00000
  22       12D 0        0.00000   0.00000   0.00000   0.03904   0.00000
  23       12D+1       -0.01354   0.00000   0.01527   0.00000   0.00000
  24       12D-1        0.00000   0.01545   0.00000   0.00000   0.00259
  25       12D+2        0.00000   0.00000   0.00000  -0.00044   0.00000
  26       12D-2        0.00000   0.00000   0.00000   0.00000   0.00000
  27       13D 0        0.00000   0.00000   0.00000   0.16710   0.00000
  28       13D+1       -0.05927   0.00000   0.06700   0.00000   0.00000
  29       13D-1        0.00000   0.07246   0.00000   0.00000  -0.00113
  30       13D+2        0.00000   0.00000   0.00000   0.00099   0.00000
  31       13D-2        0.00000   0.00000   0.00000   0.00000   0.00000
  32       14D 0        0.00000   0.00000   0.00000   0.28487   0.00000
  33       14D+1       -0.04188   0.00000   0.13296   0.00000   0.00000
  34       14D-1        0.00000   0.12904   0.00000   0.00000  -0.02183
  35       14D+2        0.00000   0.00000   0.00000  -0.00619   0.00000
  36       14D-2        0.00000   0.00000   0.00000   0.00000   0.00000
  37       15F 0        0.00000   0.00000   0.00000  -0.02200   0.00000
  38       15F+1        0.01872   0.00000  -0.02282   0.00000   0.00000
  39       15F-1        0.00000  -0.02296   0.00000   0.00000   0.01198
  40       15F+2        0.00000   0.00000   0.00000   0.00082   0.00000
  41       15F-2        0.00000   0.00000   0.00000   0.00000   0.00000
  42       15F+3       -0.00032   0.00000  -0.00250   0.00000   0.00000
  43       15F-3        0.00000  -0.00079   0.00000   0.00000   0.00025
  44 2   O  1S          0.00000   0.00000   0.00000  -0.03165   0.00000
  45        2S          0.00000   0.00000   0.00000  -0.05221   0.00000
  46        2PX         0.24901   0.00000  -0.16812   0.00000   0.00000
  47        2PY         0.00000  -0.16881   0.00000   0.00000  -0.00236
  48        2PZ         0.00000   0.00000   0.00000   0.09472   0.00000
  49        3S          0.00000   0.00000   0.00000   0.17517   0.00000
  50        3PX         0.36103   0.00000  -0.24102   0.00000   0.00000
  51        3PY         0.00000  -0.24207   0.00000   0.00000   0.01212
  52        3PZ         0.00000   0.00000   0.00000   0.14265   0.00000
  53        4S          0.00000   0.00000   0.00000   0.30079   0.00000
  54        4PX         0.32648   0.00000  -0.25861   0.00000   0.00000
  55        4PY         0.00000  -0.24511   0.00000   0.00000  -0.06966
  56        4PZ         0.00000   0.00000   0.00000   0.13127   0.00000
  57        5D 0        0.00000   0.00000   0.00000   0.00011   0.00000
  58        5D+1        0.00120   0.00000   0.00032   0.00000   0.00000
  59        5D-1        0.00000   0.00023   0.00000   0.00000  -0.00129
  60        5D+2        0.00000   0.00000   0.00000  -0.00017   0.00000
  61        5D-2        0.00000   0.00000   0.00000   0.00000   0.00000
  62        6D 0        0.00000   0.00000   0.00000   0.00278   0.00000
  63        6D+1        0.01693   0.00000  -0.00097   0.00000   0.00000
  64        6D-1        0.00000  -0.00046   0.00000   0.00000  -0.00658
  65        6D+2        0.00000   0.00000   0.00000   0.00000   0.00000
  66        6D-2        0.00000   0.00000   0.00000   0.00000   0.00000
  67        7D 0        0.00000   0.00000   0.00000  -0.00754   0.00000
  68        7D+1        0.02399   0.00000   0.01061   0.00000   0.00000
  69        7D-1        0.00000   0.00777   0.00000   0.00000  -0.04024
  70        7D+2        0.00000   0.00000   0.00000  -0.00278   0.00000
  71        7D-2        0.00000   0.00000   0.00000   0.00000   0.00000
  72        8F 0        0.00000   0.00000   0.00000   0.00121   0.00000
  73        8F+1        0.00431   0.00000   0.00040   0.00000   0.00000
  74        8F-1        0.00000   0.00056   0.00000   0.00000  -0.00274
  75        8F+2        0.00000   0.00000   0.00000  -0.00002   0.00000
  76        8F-2        0.00000   0.00000   0.00000   0.00000   0.00000
  77        8F+3        0.00012   0.00000   0.00001   0.00000   0.00000
  78        8F-3        0.00000  -0.00004   0.00000   0.00000  -0.00002
                          16        17        18        19        20
                           V         V         V         V         V
     Eigenvalues --     0.15528   0.15673   0.15879   0.17645   0.24383
   1 1   P  1S          0.00000   0.00000   0.00056  -0.01188   0.00000
   2        2S          0.00000   0.00000   0.00163  -0.03299   0.00000
   3        3S          0.00000   0.00000  -0.00422   0.07265   0.00000
   4        4S          0.00000   0.00000  -0.00394   0.13962   0.00000
   5        5S          0.00000   0.00000   0.00085  -0.36785   0.00000
   6        6S          0.00000   0.00000   0.02463   0.67542   0.00000
   7        7PX         0.08005   0.00000   0.00000   0.00000   0.00000
   8        7PY         0.00000   0.00000   0.00000   0.00000   0.01718
   9        7PZ         0.00000   0.00000  -0.00384   0.05720   0.00000
  10        8PX         0.12508   0.00000   0.00000   0.00000   0.00000
  11        8PY         0.00000   0.00000   0.00000   0.00000   0.02708
  12        8PZ         0.00000   0.00000  -0.00659   0.09213   0.00000
  13        9PX        -0.10428   0.00000   0.00000   0.00000   0.00000
  14        9PY         0.00000   0.00000   0.00000   0.00000  -0.02243
  15        9PZ         0.00000   0.00000   0.00989  -0.07617   0.00000
  16       10PX        -0.86954   0.00000   0.00000   0.00000   0.00000
  17       10PY         0.00000   0.00000   0.00000   0.00000  -0.21406
  18       10PZ         0.00000   0.00000   0.03232  -1.10605   0.00000
  19       11PX         1.20462   0.00000   0.00000   0.00000   0.00000
  20       11PY         0.00000   0.00000   0.00000   0.00000  -0.19989
  21       11PZ         0.00000   0.00000  -0.06735   1.17372   0.00000
  22       12D 0        0.00000   0.00000   0.00203  -0.04050   0.00000
  23       12D+1        0.00226   0.00000   0.00000   0.00000   0.00000
  24       12D-1        0.00000   0.00000   0.00000   0.00000   0.04752
  25       12D+2        0.00000   0.00000   0.05562   0.00293   0.00000
  26       12D-2        0.00000   0.05562   0.00000   0.00000   0.00000
  27       13D 0        0.00000   0.00000   0.00916   0.00044   0.00000
  28       13D+1        0.00198   0.00000   0.00000   0.00000   0.00000
  29       13D-1        0.00000   0.00000   0.00000   0.00000   0.17675
  30       13D+2        0.00000   0.00000   0.19306   0.01060   0.00000
  31       13D-2        0.00000   0.19429   0.00000   0.00000   0.00000
  32       14D 0        0.00000   0.00000   0.05277  -0.51742   0.00000
  33       14D+1       -0.05628   0.00000   0.00000   0.00000   0.00000
  34       14D-1        0.00000   0.00000   0.00000   0.00000   1.14171
  35       14D+2        0.00000   0.00000   0.87891   0.04455   0.00000
  36       14D-2        0.00000   0.88018   0.00000   0.00000   0.00000
  37       15F 0        0.00000   0.00000   0.00069  -0.00623   0.00000
  38       15F+1        0.01331   0.00000   0.00000   0.00000   0.00000
  39       15F-1        0.00000   0.00000   0.00000   0.00000  -0.00984
  40       15F+2        0.00000   0.00000   0.00171  -0.00014   0.00000
  41       15F-2        0.00000   0.00258   0.00000   0.00000   0.00000
  42       15F+3        0.00110   0.00000   0.00000   0.00000   0.00000
  43       15F-3        0.00000   0.00000   0.00000   0.00000  -0.00158
  44 2   O  1S          0.00000   0.00000   0.00102  -0.00167   0.00000
  45        2S          0.00000   0.00000   0.00161  -0.00299   0.00000
  46        2PX         0.00087   0.00000   0.00000   0.00000   0.00000
  47        2PY         0.00000   0.00000   0.00000   0.00000   0.14002
  48        2PZ         0.00000   0.00000   0.00310  -0.05485   0.00000
  49        3S          0.00000   0.00000  -0.00310   0.02672   0.00000
  50        3PX         0.01728   0.00000   0.00000   0.00000   0.00000
  51        3PY         0.00000   0.00000   0.00000   0.00000   0.16655
  52        3PZ         0.00000   0.00000   0.00218  -0.05241   0.00000
  53        4S          0.00000   0.00000  -0.05299   0.07433   0.00000
  54        4PX        -0.07397   0.00000   0.00000   0.00000   0.00000
  55        4PY         0.00000   0.00000   0.00000   0.00000   0.57490
  56        4PZ         0.00000   0.00000   0.01050  -0.58373   0.00000
  57        5D 0        0.00000   0.00000   0.00009  -0.00124   0.00000
  58        5D+1       -0.00141   0.00000   0.00000   0.00000   0.00000
  59        5D-1        0.00000   0.00000   0.00000   0.00000  -0.00020
  60        5D+2        0.00000   0.00000   0.00075   0.00005   0.00000
  61        5D-2        0.00000   0.00073   0.00000   0.00000   0.00000
  62        6D 0        0.00000   0.00000  -0.00102   0.00761   0.00000
  63        6D+1       -0.00641   0.00000   0.00000   0.00000   0.00000
  64        6D-1        0.00000   0.00000   0.00000   0.00000  -0.01784
  65        6D+2        0.00000   0.00000   0.01092   0.00061   0.00000
  66        6D-2        0.00000   0.01100   0.00000   0.00000   0.00000
  67        7D 0        0.00000   0.00000   0.00602  -0.25829   0.00000
  68        7D+1       -0.04855   0.00000   0.00000   0.00000   0.00000
  69        7D-1        0.00000   0.00000   0.00000   0.00000   0.09013
  70        7D+2        0.00000   0.00000   0.01450   0.00148   0.00000
  71        7D-2        0.00000   0.01357   0.00000   0.00000   0.00000
  72        8F 0        0.00000   0.00000   0.00008  -0.01066   0.00000
  73        8F+1       -0.00297   0.00000   0.00000   0.00000   0.00000
  74        8F-1        0.00000   0.00000   0.00000   0.00000   0.00329
  75        8F+2        0.00000   0.00000   0.00242   0.00014   0.00000
  76        8F-2        0.00000   0.00242   0.00000   0.00000   0.00000
  77        8F+3       -0.00002   0.00000   0.00000   0.00000   0.00000
  78        8F-3        0.00000   0.00000   0.00000   0.00000  -0.00004
                          21        22        23        24        25
                           V         V         V         V         V
     Eigenvalues --     0.24847   0.28683   0.40110   0.65742   0.65759
   1 1   P  1S          0.00000  -0.02090  -0.01808   0.00000   0.00000
   2        2S          0.00000  -0.05722  -0.04863   0.00000   0.00000
   3        3S          0.00000   0.11858   0.09312   0.00000   0.00000
   4        4S          0.00000   0.28470   0.28232   0.00000   0.00000
   5        5S          0.00000  -1.10915  -0.83305   0.00000   0.00000
   6        6S          0.00000   2.47239  -0.51055   0.00000   0.00000
   7        7PX         0.01736   0.00000   0.00000   0.00000   0.01012
   8        7PY         0.00000   0.00000   0.00000   0.00845   0.00000
   9        7PZ         0.00000  -0.00228  -0.08198   0.00000   0.00000
  10        8PX         0.02698   0.00000   0.00000   0.00000   0.01005
  11        8PY         0.00000   0.00000   0.00000   0.00792   0.00000
  12        8PZ         0.00000  -0.00801  -0.12344   0.00000   0.00000
  13        9PX        -0.01924   0.00000   0.00000   0.00000   0.04653
  14        9PY         0.00000   0.00000   0.00000   0.04523   0.00000
  15        9PZ         0.00000   0.08766   0.06210   0.00000   0.00000
  16       10PX        -0.22929   0.00000   0.00000   0.00000  -0.52491
  17       10PY         0.00000   0.00000   0.00000  -0.50405   0.00000
  18       10PZ         0.00000  -1.09795   1.46848   0.00000   0.00000
  19       11PX        -0.17709   0.00000   0.00000   0.00000   0.11718
  20       11PY         0.00000   0.00000   0.00000   0.10525   0.00000
  21       11PZ         0.00000  -0.64093  -0.11306   0.00000   0.00000
  22       12D 0        0.00000   0.00032   0.01965   0.00000   0.00000
  23       12D+1        0.04703   0.00000   0.00000   0.00000  -0.10671
  24       12D-1        0.00000   0.00000   0.00000  -0.10602   0.00000
  25       12D+2        0.00000  -0.00168  -0.00051   0.00000   0.00000
  26       12D-2        0.00000   0.00000   0.00000   0.00000   0.00000
  27       13D 0        0.00000   0.30128   0.09860   0.00000   0.00000
  28       13D+1        0.16970   0.00000   0.00000   0.00000  -0.55460
  29       13D-1        0.00000   0.00000   0.00000  -0.55535   0.00000
  30       13D+2        0.00000  -0.00380  -0.00370   0.00000   0.00000
  31       13D-2        0.00000   0.00000   0.00000   0.00000   0.00000
  32       14D 0        0.00000   0.96339  -1.14709   0.00000   0.00000
  33       14D+1        1.14726   0.00000   0.00000   0.00000   0.66343
  34       14D-1        0.00000   0.00000   0.00000   0.66991   0.00000
  35       14D+2        0.00000  -0.02161   0.00744   0.00000   0.00000
  36       14D-2        0.00000   0.00000   0.00000   0.00000   0.00000
  37       15F 0        0.00000  -0.11177  -0.00373   0.00000   0.00000
  38       15F+1       -0.01282   0.00000   0.00000   0.00000  -0.11322
  39       15F-1        0.00000   0.00000   0.00000  -0.11918   0.00000
  40       15F+2        0.00000  -0.00054   0.00053   0.00000   0.00000
  41       15F-2        0.00000   0.00000   0.00000   0.00000   0.00000
  42       15F+3       -0.00183   0.00000   0.00000   0.00000   0.00322
  43       15F-3        0.00000   0.00000   0.00000   0.00198   0.00000
  44 2   O  1S          0.00000   0.02480  -0.04101   0.00000   0.00000
  45        2S          0.00000   0.03540  -0.06790   0.00000   0.00000
  46        2PX         0.14390   0.00000   0.00000   0.00000   0.03163
  47        2PY         0.00000   0.00000   0.00000   0.03257   0.00000
  48        2PZ         0.00000   0.10049   0.11039   0.00000   0.00000
  49        3S          0.00000   0.05749   0.19867   0.00000   0.00000
  50        3PX         0.17438   0.00000   0.00000   0.00000   0.11366
  51        3PY         0.00000   0.00000   0.00000   0.11419   0.00000
  52        3PZ         0.00000   0.16291   0.15885   0.00000   0.00000
  53        4S          0.00000  -2.22795   1.46599   0.00000   0.00000
  54        4PX         0.58999   0.00000   0.00000   0.00000   0.09849
  55        4PY         0.00000   0.00000   0.00000   0.10139   0.00000
  56        4PZ         0.00000  -0.96759   0.80300   0.00000   0.00000
  57        5D 0        0.00000   0.00113  -0.00358   0.00000   0.00000
  58        5D+1       -0.00026   0.00000   0.00000   0.00000   0.01124
  59        5D-1        0.00000   0.00000   0.00000   0.01129   0.00000
  60        5D+2        0.00000   0.00017  -0.00017   0.00000   0.00000
  61        5D-2        0.00000   0.00000   0.00000   0.00000   0.00000
  62        6D 0        0.00000  -0.02669  -0.00757   0.00000   0.00000
  63        6D+1       -0.01686   0.00000   0.00000   0.00000   0.00760
  64        6D-1        0.00000   0.00000   0.00000   0.00797   0.00000
  65        6D+2        0.00000  -0.00065  -0.00013   0.00000   0.00000
  66        6D-2        0.00000   0.00000   0.00000   0.00000   0.00000
  67        7D 0        0.00000  -0.33777   0.01016   0.00000   0.00000
  68        7D+1        0.08977   0.00000   0.00000   0.00000   0.76873
  69        7D-1        0.00000   0.00000   0.00000   0.76903   0.00000
  70        7D+2        0.00000   0.00526  -0.00179   0.00000   0.00000
  71        7D-2        0.00000   0.00000   0.00000   0.00000   0.00000
  72        8F 0        0.00000  -0.01841   0.00310   0.00000   0.00000
  73        8F+1        0.00351   0.00000   0.00000   0.00000   0.01676
  74        8F-1        0.00000   0.00000   0.00000   0.01679   0.00000
  75        8F+2        0.00000  -0.00003  -0.00005   0.00000   0.00000
  76        8F-2        0.00000   0.00000   0.00000   0.00000   0.00000
  77        8F+3       -0.00007   0.00000   0.00000   0.00000   0.00009
  78        8F-3        0.00000   0.00000   0.00000   0.00009   0.00000
                          26        27        28        29        30
                           V         V         V         V         V
     Eigenvalues --     0.74861   0.78287   0.78365   0.82707   0.82905
   1 1   P  1S         -0.00208   0.00000   0.00012   0.00000   0.00007
   2        2S         -0.00557   0.00000   0.00037   0.00000   0.00034
   3        3S          0.01010   0.00000  -0.00107   0.00000  -0.00224
   4        4S          0.03917   0.00000  -0.00082   0.00000   0.00527
   5        5S         -0.08509   0.00000   0.00110   0.00000  -0.02364
   6        6S         -0.41416   0.00000   0.00141   0.00000   0.00190
   7        7PX         0.00000   0.00000   0.00000   0.00000   0.00000
   8        7PY         0.00000   0.00000   0.00000   0.00000   0.00000
   9        7PZ        -0.02704   0.00000   0.00138   0.00000   0.00053
  10        8PX         0.00000   0.00000   0.00000   0.00000   0.00000
  11        8PY         0.00000   0.00000   0.00000   0.00000   0.00000
  12        8PZ        -0.05738   0.00000   0.00306   0.00000   0.00144
  13        9PX         0.00000   0.00000   0.00000   0.00000   0.00000
  14        9PY         0.00000   0.00000   0.00000   0.00000   0.00000
  15        9PZ         0.15408   0.00000  -0.00958   0.00000  -0.00615
  16       10PX         0.00000   0.00000   0.00000   0.00000   0.00000
  17       10PY         0.00000   0.00000   0.00000   0.00000   0.00000
  18       10PZ         0.25543   0.00000   0.00575   0.00000   0.02882
  19       11PX         0.00000   0.00000   0.00000   0.00000   0.00000
  20       11PY         0.00000   0.00000   0.00000   0.00000   0.00000
  21       11PZ        -0.00458   0.00000   0.00722   0.00000  -0.00878
  22       12D 0       -0.02979   0.00000   0.00313   0.00000   0.00104
  23       12D+1        0.00000   0.00000   0.00000   0.00000   0.00000
  24       12D-1        0.00000   0.00000   0.00000   0.00000   0.00000
  25       12D+2        0.00154   0.00000   0.04835   0.00000   0.13777
  26       12D-2        0.00000   0.04968   0.00000   0.13684   0.00000
  27       13D 0       -0.28437   0.00000   0.02240   0.00000   0.00615
  28       13D+1        0.00000   0.00000   0.00000   0.00000   0.00000
  29       13D-1        0.00000   0.00000   0.00000   0.00000   0.00000
  30       13D+2        0.01234   0.00000   0.35093   0.00000   0.94965
  31       13D-2        0.00000   0.36061   0.00000   0.94649   0.00000
  32       14D 0        0.25218   0.00000  -0.03243   0.00000  -0.00758
  33       14D+1        0.00000   0.00000   0.00000   0.00000   0.00000
  34       14D-1        0.00000   0.00000   0.00000   0.00000   0.00000
  35       14D+2       -0.03439   0.00000  -0.56445   0.00000  -0.50988
  36       14D-2        0.00000  -0.56972   0.00000  -0.50575   0.00000
  37       15F 0        0.15240   0.00000  -0.00574   0.00000   0.01034
  38       15F+1        0.00000   0.00000   0.00000   0.00000   0.00000
  39       15F-1        0.00000   0.00000   0.00000   0.00000   0.00000
  40       15F+2       -0.01161   0.00000  -0.15132   0.00000   0.08086
  41       15F-2        0.00000  -0.15126   0.00000   0.08415   0.00000
  42       15F+3        0.00000   0.00000   0.00000   0.00000   0.00000
  43       15F-3        0.00000   0.00000   0.00000   0.00000   0.00000
  44 2   O  1S         -0.00987   0.00000   0.00109   0.00000   0.00006
  45        2S         -0.01595   0.00000   0.00208   0.00000   0.00008
  46        2PX         0.00000   0.00000   0.00000   0.00000   0.00000
  47        2PY         0.00000   0.00000   0.00000   0.00000   0.00000
  48        2PZ        -0.13391   0.00000   0.00733   0.00000  -0.00515
  49        3S          0.01903   0.00000  -0.01207   0.00000  -0.00061
  50        3PX         0.00000   0.00000   0.00000   0.00000   0.00000
  51        3PY         0.00000   0.00000   0.00000   0.00000   0.00000
  52        3PZ        -0.44813   0.00000   0.02651   0.00000  -0.01176
  53        4S          0.33307   0.00000   0.02183   0.00000   0.01845
  54        4PX         0.00000   0.00000   0.00000   0.00000   0.00000
  55        4PY         0.00000   0.00000   0.00000   0.00000   0.00000
  56        4PZ         1.16814   0.00000  -0.05790   0.00000   0.03422
  57        5D 0       -0.01313   0.00000   0.00091   0.00000  -0.00008
  58        5D+1        0.00000   0.00000   0.00000   0.00000   0.00000
  59        5D-1        0.00000   0.00000   0.00000   0.00000   0.00000
  60        5D+2        0.00099   0.00000   0.01497   0.00000  -0.00622
  61        5D-2        0.00000   0.01494   0.00000  -0.00635   0.00000
  62        6D 0       -0.01130   0.00000   0.00134   0.00000   0.00018
  63        6D+1        0.00000   0.00000   0.00000   0.00000   0.00000
  64        6D-1        0.00000   0.00000   0.00000   0.00000   0.00000
  65        6D+2       -0.00063   0.00000  -0.00058   0.00000   0.00142
  66        6D-2        0.00000  -0.00057   0.00000   0.00135   0.00000
  67        7D 0       -0.47639   0.00000   0.03749   0.00000   0.00641
  68        7D+1        0.00000   0.00000   0.00000   0.00000   0.00000
  69        7D-1        0.00000   0.00000   0.00000   0.00000   0.00000
  70        7D+2        0.06404   0.00000   0.91650   0.00000  -0.35091
  71        7D-2        0.00000   0.91512   0.00000  -0.35896   0.00000
  72        8F 0        0.00179   0.00000  -0.00009   0.00000   0.00023
  73        8F+1        0.00000   0.00000   0.00000   0.00000   0.00000
  74        8F-1        0.00000   0.00000   0.00000   0.00000   0.00000
  75        8F+2        0.00056   0.00000   0.00759   0.00000   0.00504
  76        8F-2        0.00000   0.00764   0.00000   0.00495   0.00000
  77        8F+3        0.00000   0.00000   0.00000   0.00000   0.00000
  78        8F-3        0.00000   0.00000   0.00000   0.00000   0.00000
                          31        32        33        34        35
                           V         V         V         V         V
     Eigenvalues --     0.92082   0.92444   0.92860   1.07228   1.19946
   1 1   P  1S          0.00000   0.00000   0.00787   0.01390   0.00000
   2        2S          0.00000   0.00000   0.01793   0.03656   0.00000
   3        3S          0.00000   0.00000  -0.00303  -0.06070   0.00000
   4        4S          0.00000   0.00000  -0.27148  -0.29874   0.00000
   5        5S          0.00000   0.00000   1.45080   1.74430   0.00000
   6        6S          0.00000   0.00000  -0.11477  -0.93006   0.00000
   7        7PX         0.00000   0.00309   0.00000   0.00000   0.03938
   8        7PY         0.00311   0.00000   0.00000   0.00000   0.00000
   9        7PZ         0.00000   0.00000  -0.07083  -0.04286   0.00000
  10        8PX         0.00000   0.00416   0.00000   0.00000   0.07788
  11        8PY         0.00456   0.00000   0.00000   0.00000   0.00000
  12        8PZ         0.00000   0.00000  -0.13280  -0.08523   0.00000
  13        9PX         0.00000   0.01033   0.00000   0.00000  -0.21470
  14        9PY         0.00761   0.00000   0.00000   0.00000   0.00000
  15        9PZ         0.00000   0.00000   0.38548   0.25961   0.00000
  16       10PX         0.00000  -0.17042   0.00000   0.00000  -0.47971
  17       10PY        -0.16582   0.00000   0.00000   0.00000   0.00000
  18       10PZ         0.00000   0.00000  -1.28104  -1.07398   0.00000
  19       11PX         0.00000  -0.34808   0.00000   0.00000  -0.12703
  20       11PY        -0.35338   0.00000   0.00000   0.00000   0.00000
  21       11PZ         0.00000   0.00000   0.39624   0.97561   0.00000
  22       12D 0        0.00000   0.00000  -0.12483   0.09931   0.00000
  23       12D+1        0.00000  -0.07768   0.00000   0.00000   0.08348
  24       12D-1       -0.07682   0.00000   0.00000   0.00000   0.00000
  25       12D+2        0.00000   0.00000   0.00425  -0.00138   0.00000
  26       12D-2        0.00000   0.00000   0.00000   0.00000   0.00000
  27       13D 0        0.00000   0.00000  -0.32258   0.81945   0.00000
  28       13D+1        0.00000  -0.43128   0.00000   0.00000   0.72482
  29       13D-1       -0.43155   0.00000   0.00000   0.00000   0.00000
  30       13D+2        0.00000   0.00000   0.02015  -0.00454   0.00000
  31       13D-2        0.00000   0.00000   0.00000   0.00000   0.00000
  32       14D 0        0.00000   0.00000   0.23035  -0.82798   0.00000
  33       14D+1        0.00000   0.83310   0.00000   0.00000   0.15558
  34       14D-1        0.83865   0.00000   0.00000   0.00000   0.00000
  35       14D+2        0.00000   0.00000  -0.01046   0.00208   0.00000
  36       14D-2        0.00000   0.00000   0.00000   0.00000   0.00000
  37       15F 0        0.00000   0.00000  -0.34568   0.27590   0.00000
  38       15F+1        0.00000  -0.09192   0.00000   0.00000   0.26172
  39       15F-1       -0.09246   0.00000   0.00000   0.00000   0.00000
  40       15F+2        0.00000   0.00000   0.00347   0.00205   0.00000
  41       15F-2        0.00000   0.00000   0.00000   0.00000   0.00000
  42       15F+3        0.00000   0.00314   0.00000   0.00000   0.01614
  43       15F-3        0.00212   0.00000   0.00000   0.00000   0.00000
  44 2   O  1S          0.00000   0.00000  -0.00159   0.07171   0.00000
  45        2S          0.00000   0.00000  -0.00312   0.13327   0.00000
  46        2PX         0.00000  -0.23478   0.00000   0.00000  -0.10764
  47        2PY        -0.23296   0.00000   0.00000   0.00000   0.00000
  48        2PZ         0.00000   0.00000   0.20124  -0.03120   0.00000
  49        3S          0.00000   0.00000   0.05695  -0.76518   0.00000
  50        3PX         0.00000  -0.73364   0.00000   0.00000  -0.40373
  51        3PY        -0.72540   0.00000   0.00000   0.00000   0.00000
  52        3PZ         0.00000   0.00000   0.44426   0.15126   0.00000
  53        4S          0.00000   0.00000  -0.78296   0.97477   0.00000
  54        4PX         0.00000   1.52257   0.00000   0.00000   0.92198
  55        4PY         1.52873   0.00000   0.00000   0.00000   0.00000
  56        4PZ         0.00000   0.00000  -1.40120  -1.19561   0.00000
  57        5D 0        0.00000   0.00000  -0.00550  -0.00627   0.00000
  58        5D+1        0.00000  -0.00375   0.00000   0.00000   0.01416
  59        5D-1       -0.00379   0.00000   0.00000   0.00000   0.00000
  60        5D+2        0.00000   0.00000  -0.00005   0.00012   0.00000
  61        5D-2        0.00000   0.00000   0.00000   0.00000   0.00000
  62        6D 0        0.00000   0.00000  -0.03408   0.04387   0.00000
  63        6D+1        0.00000  -0.00019   0.00000   0.00000  -0.01358
  64        6D-1        0.00019   0.00000   0.00000   0.00000   0.00000
  65        6D+2        0.00000   0.00000  -0.00017   0.00013   0.00000
  66        6D-2        0.00000   0.00000   0.00000   0.00000   0.00000
  67        7D 0        0.00000   0.00000  -0.80937  -0.90738   0.00000
  68        7D+1        0.00000  -0.09546   0.00000   0.00000   1.00146
  69        7D-1       -0.09536   0.00000   0.00000   0.00000   0.00000
  70        7D+2        0.00000   0.00000   0.00087  -0.00432   0.00000
  71        7D-2        0.00000   0.00000   0.00000   0.00000   0.00000
  72        8F 0        0.00000   0.00000  -0.01832  -0.01965   0.00000
  73        8F+1        0.00000   0.00570   0.00000   0.00000  -0.01360
  74        8F-1        0.00585   0.00000   0.00000   0.00000   0.00000
  75        8F+2        0.00000   0.00000   0.00005  -0.00004   0.00000
  76        8F-2        0.00000   0.00000   0.00000   0.00000   0.00000
  77        8F+3        0.00000   0.00021   0.00000   0.00000   0.00041
  78        8F-3        0.00016   0.00000   0.00000   0.00000   0.00000
                          36        37        38        39        40
                           V         V         V         V         V
     Eigenvalues --     1.20241   1.28400   1.28452   1.37460   1.37469
   1 1   P  1S          0.00000   0.00000   0.00000   0.00000   0.00000
   2        2S          0.00000   0.00000   0.00000   0.00000   0.00000
   3        3S          0.00000   0.00000   0.00000   0.00000   0.00000
   4        4S          0.00000   0.00000   0.00000   0.00000   0.00000
   5        5S          0.00000   0.00000   0.00000   0.00000   0.00000
   6        6S          0.00000   0.00000   0.00000   0.00000   0.00000
   7        7PX         0.00000   0.00000  -0.00195   0.00000  -0.17675
   8        7PY         0.03651   0.00099   0.00000  -0.17705   0.00000
   9        7PZ         0.00000   0.00000   0.00000   0.00000   0.00000
  10        8PX         0.00000   0.00000  -0.00357   0.00000  -0.40387
  11        8PY         0.07127   0.00276   0.00000  -0.40463   0.00000
  12        8PZ         0.00000   0.00000   0.00000   0.00000   0.00000
  13        9PX         0.00000   0.00000   0.01092   0.00000   1.64900
  14        9PY        -0.19025  -0.01283   0.00000   1.65593   0.00000
  15        9PZ         0.00000   0.00000   0.00000   0.00000   0.00000
  16       10PX         0.00000   0.00000   0.00918   0.00000  -1.41444
  17       10PY        -0.49429   0.02117   0.00000  -1.41905   0.00000
  18       10PZ         0.00000   0.00000   0.00000   0.00000   0.00000
  19       11PX         0.00000   0.00000   0.00519   0.00000   0.51751
  20       11PY        -0.11637  -0.00279   0.00000   0.52059   0.00000
  21       11PZ         0.00000   0.00000   0.00000   0.00000   0.00000
  22       12D 0        0.00000   0.00000   0.00000   0.00000   0.00000
  23       12D+1        0.00000   0.00000  -0.00045   0.00000  -0.00625
  24       12D-1        0.08120  -0.00017   0.00000  -0.00806   0.00000
  25       12D+2        0.00000   0.00000   0.00000   0.00000   0.00000
  26       12D-2        0.00000   0.00000   0.00000   0.00000   0.00000
  27       13D 0        0.00000   0.00000   0.00000   0.00000   0.00000
  28       13D+1        0.00000   0.00000  -0.01079   0.00000  -0.06171
  29       13D-1        0.71748  -0.00561   0.00000  -0.07575   0.00000
  30       13D+2        0.00000   0.00000   0.00000   0.00000   0.00000
  31       13D-2        0.00000   0.00000   0.00000   0.00000   0.00000
  32       14D 0        0.00000   0.00000   0.00000   0.00000   0.00000
  33       14D+1        0.00000   0.00000  -0.00797   0.00000  -0.09591
  34       14D-1        0.14679  -0.00354   0.00000  -0.09067   0.00000
  35       14D+2        0.00000   0.00000   0.00000   0.00000   0.00000
  36       14D-2        0.00000   0.00000   0.00000   0.00000   0.00000
  37       15F 0        0.00000   0.00000   0.00000   0.00000   0.00000
  38       15F+1        0.00000   0.00000   0.00333   0.00000   0.45980
  39       15F-1        0.27760  -0.00330   0.00000   0.44919   0.00000
  40       15F+2        0.00000   0.00000   0.00000   0.00000   0.00000
  41       15F-2        0.00000   0.00000   0.00000   0.00000   0.00000
  42       15F+3        0.00000   0.00000   0.99954   0.00000  -0.00613
  43       15F-3        0.00996   0.99962   0.00000   0.00776   0.00000
  44 2   O  1S          0.00000   0.00000   0.00000   0.00000   0.00000
  45        2S          0.00000   0.00000   0.00000   0.00000   0.00000
  46        2PX         0.00000   0.00000   0.00228   0.00000  -0.02315
  47        2PY        -0.10783   0.00175   0.00000  -0.02093   0.00000
  48        2PZ         0.00000   0.00000   0.00000   0.00000   0.00000
  49        3S          0.00000   0.00000   0.00000   0.00000   0.00000
  50        3PX         0.00000   0.00000   0.00837   0.00000  -0.01851
  51        3PY        -0.39937   0.00547   0.00000  -0.01182   0.00000
  52        3PZ         0.00000   0.00000   0.00000   0.00000   0.00000
  53        4S          0.00000   0.00000   0.00000   0.00000   0.00000
  54        4PX         0.00000   0.00000  -0.02569   0.00000  -0.16605
  55        4PY         0.90866  -0.01381   0.00000  -0.17194   0.00000
  56        4PZ         0.00000   0.00000   0.00000   0.00000   0.00000
  57        5D 0        0.00000   0.00000   0.00000   0.00000   0.00000
  58        5D+1        0.00000   0.00000  -0.00024   0.00000  -0.00050
  59        5D-1        0.01424  -0.00014   0.00000  -0.00067   0.00000
  60        5D+2        0.00000   0.00000   0.00000   0.00000   0.00000
  61        5D-2        0.00000   0.00000   0.00000   0.00000   0.00000
  62        6D 0        0.00000   0.00000   0.00000   0.00000   0.00000
  63        6D+1        0.00000   0.00000   0.00010   0.00000   0.03734
  64        6D-1       -0.01130  -0.00041   0.00000   0.03669   0.00000
  65        6D+2        0.00000   0.00000   0.00000   0.00000   0.00000
  66        6D-2        0.00000   0.00000   0.00000   0.00000   0.00000
  67        7D 0        0.00000   0.00000   0.00000   0.00000   0.00000
  68        7D+1        0.00000   0.00000  -0.02298   0.00000  -0.15048
  69        7D-1        0.99263  -0.01226   0.00000  -0.15988   0.00000
  70        7D+2        0.00000   0.00000   0.00000   0.00000   0.00000
  71        7D-2        0.00000   0.00000   0.00000   0.00000   0.00000
  72        8F 0        0.00000   0.00000   0.00000   0.00000   0.00000
  73        8F+1        0.00000   0.00000   0.00006   0.00000   0.00827
  74        8F-1       -0.01377  -0.00005   0.00000   0.00865   0.00000
  75        8F+2        0.00000   0.00000   0.00000   0.00000   0.00000
  76        8F-2        0.00000   0.00000   0.00000   0.00000   0.00000
  77        8F+3        0.00000   0.00000   0.00790   0.00000  -0.00006
  78        8F-3        0.00035   0.00790   0.00000   0.00005   0.00000
                          41        42        43        44        45
                           V         V         V         V         V
     Eigenvalues --     1.43282   1.43483   1.52616   1.61748   1.73479
   1 1   P  1S          0.00000   0.00026  -0.01326  -0.01632   0.00000
   2        2S          0.00000   0.00077  -0.03638  -0.04478   0.00000
   3        3S          0.00000  -0.00202   0.07511   0.09287   0.00000
   4        4S          0.00000  -0.00297   0.24820   0.30250   0.00000
   5        5S          0.00000   0.01760  -1.39520  -1.25004   0.00000
   6        6S          0.00000   0.00480  -0.41579  -2.51720   0.00000
   7        7PX         0.00000   0.00000   0.00000   0.00000   0.07182
   8        7PY         0.00000   0.00000   0.00000   0.00000   0.00000
   9        7PZ         0.00000   0.00181  -0.12118   0.09917   0.00000
  10        8PX         0.00000   0.00000   0.00000   0.00000   0.17576
  11        8PY         0.00000   0.00000   0.00000   0.00000   0.00000
  12        8PZ         0.00000   0.00437  -0.27158   0.23943   0.00000
  13        9PX         0.00000   0.00000   0.00000   0.00000  -0.91109
  14        9PY         0.00000   0.00000   0.00000   0.00000   0.00000
  15        9PZ         0.00000  -0.01851   1.09783  -1.28990   0.00000
  16       10PX         0.00000   0.00000   0.00000   0.00000   1.80074
  17       10PY         0.00000   0.00000   0.00000   0.00000   0.00000
  18       10PZ         0.00000   0.00160   0.52979   4.17367   0.00000
  19       11PX         0.00000   0.00000   0.00000   0.00000  -0.01885
  20       11PY         0.00000   0.00000   0.00000   0.00000   0.00000
  21       11PZ         0.00000  -0.00287   0.13739   0.21354   0.00000
  22       12D 0        0.00000   0.00084  -0.06831  -0.05051   0.00000
  23       12D+1        0.00000   0.00000   0.00000   0.00000  -0.09914
  24       12D-1        0.00000   0.00000   0.00000   0.00000   0.00000
  25       12D+2        0.00000  -0.00741  -0.00060   0.00000   0.00000
  26       12D-2       -0.00794   0.00000   0.00000   0.00000   0.00000
  27       13D 0        0.00000   0.00676  -0.64694  -0.89454   0.00000
  28       13D+1        0.00000   0.00000   0.00000   0.00000  -0.57138
  29       13D-1        0.00000   0.00000   0.00000   0.00000   0.00000
  30       13D+2        0.00000  -0.02665  -0.00109  -0.00071   0.00000
  31       13D-2       -0.02802   0.00000   0.00000   0.00000   0.00000
  32       14D 0        0.00000  -0.00002  -0.14163  -1.03210   0.00000
  33       14D+1        0.00000   0.00000   0.00000   0.00000  -0.82994
  34       14D-1        0.00000   0.00000   0.00000   0.00000   0.00000
  35       14D+2        0.00000  -0.18046  -0.00242   0.00174   0.00000
  36       14D-2       -0.18038   0.00000   0.00000   0.00000   0.00000
  37       15F 0        0.00000  -0.00504   0.78249   0.40994   0.00000
  38       15F+1        0.00000   0.00000   0.00000   0.00000   1.23483
  39       15F-1        0.00000   0.00000   0.00000   0.00000   0.00000
  40       15F+2        0.00000   1.05354   0.01233  -0.00017   0.00000
  41       15F-2        1.05346   0.00000   0.00000   0.00000   0.00000
  42       15F+3        0.00000   0.00000   0.00000   0.00000  -0.00316
  43       15F-3        0.00000   0.00000   0.00000   0.00000   0.00000
  44 2   O  1S          0.00000  -0.00025  -0.00560   0.07759   0.00000
  45        2S          0.00000  -0.00061  -0.00391   0.16266   0.00000
  46        2PX         0.00000   0.00000   0.00000   0.00000  -0.00774
  47        2PY         0.00000   0.00000   0.00000   0.00000   0.00000
  48        2PZ         0.00000  -0.00235   0.15648   0.05425   0.00000
  49        3S          0.00000   0.00724  -0.20535  -1.61414   0.00000
  50        3PX         0.00000   0.00000   0.00000   0.00000   0.12766
  51        3PY         0.00000   0.00000   0.00000   0.00000   0.00000
  52        3PZ         0.00000  -0.00280   0.32551   0.25574   0.00000
  53        4S          0.00000  -0.01995   1.72208   5.60425   0.00000
  54        4PX         0.00000   0.00000   0.00000   0.00000  -1.62767
  55        4PY         0.00000   0.00000   0.00000   0.00000   0.00000
  56        4PZ         0.00000  -0.01074   1.06799   2.40188   0.00000
  57        5D 0        0.00000  -0.00005   0.00107  -0.00896   0.00000
  58        5D+1        0.00000   0.00000   0.00000   0.00000  -0.00243
  59        5D-1        0.00000   0.00000   0.00000   0.00000   0.00000
  60        5D+2        0.00000   0.00610   0.00001   0.00014   0.00000
  61        5D-2        0.00612   0.00000   0.00000   0.00000   0.00000
  62        6D 0        0.00000   0.00172  -0.07378   0.01548   0.00000
  63        6D+1        0.00000   0.00000   0.00000   0.00000   0.08040
  64        6D-1        0.00000   0.00000   0.00000   0.00000   0.00000
  65        6D+2        0.00000  -0.00969  -0.00010   0.00067   0.00000
  66        6D-2       -0.00968   0.00000   0.00000   0.00000   0.00000
[...]
  71        7D-2        0.00000
  72        8F 0        0.00000   0.00008
  73        8F+1        0.00000   0.00000   0.00004
  74        8F-1        0.00000   0.00000   0.00000   0.00005
  75        8F+2        0.00000   0.00000   0.00000   0.00000   0.00000
  76        8F-2        0.00000   0.00000   0.00000   0.00000   0.00000
  77        8F+3        0.00000   0.00000   0.00000   0.00000   0.00000
  78        8F-3        0.00000   0.00000   0.00000   0.00000   0.00000
                          76        77        78
  76        8F-2        0.00000
  77        8F+3        0.00000   0.00000
  78        8F-3        0.00000   0.00000   0.00000
     Gross orbital populations:
                         Total     Alpha     Beta      Spin
   1 1   P  1S          0.79219   0.39609   0.39610   0.00000
   2        2S          1.17501   0.58750   0.58751  -0.00001
   3        3S          0.91477   0.45756   0.45721   0.00035
   4        4S          1.06592   0.53242   0.53350  -0.00107
   5        5S          1.00078   0.50447   0.49632   0.00815
   6        6S          0.85797   0.42333   0.43464  -0.01131
   7        7PX         0.66661   0.33340   0.33321   0.00018
   8        7PY         0.67993   0.34680   0.33313   0.01368
   9        7PZ         0.68039   0.34015   0.34025  -0.00010
  10        8PX         1.28420   0.64202   0.64218  -0.00016
  11        8PY         1.27775   0.63508   0.64267  -0.00759
  12        8PZ         1.27771   0.63885   0.63886  -0.00001
  13        9PX         0.14144   0.07092   0.07052   0.00040
  14        9PY         0.23530   0.16887   0.06643   0.10243
  15        9PZ         0.26466   0.13137   0.13329  -0.00192
  16       10PX         0.31847   0.16107   0.15740   0.00367
  17       10PY         0.71571   0.57547   0.14023   0.43524
  18       10PZ         0.42146   0.21061   0.21085  -0.00023
  19       11PX         0.11490   0.05689   0.05801  -0.00112
  20       11PY         0.30417   0.24533   0.05884   0.18649
  21       11PZ         0.03627   0.01661   0.01966  -0.00305
  22       12D 0        0.00450   0.00230   0.00221   0.00009
  23       12D+1        0.00194   0.00095   0.00099  -0.00004
  24       12D-1        0.00304   0.00197   0.00107   0.00090
  25       12D+2        0.00003   0.00000   0.00002  -0.00002
  26       12D-2        0.00000   0.00000   0.00000   0.00000
  27       13D 0        0.05354   0.02781   0.02573   0.00209
  28       13D+1        0.03306   0.01619   0.01686  -0.00067
  29       13D-1        0.05095   0.03281   0.01814   0.01467
  30       13D+2        0.00063   0.00009   0.00054  -0.00045
  31       13D-2        0.00000   0.00000   0.00000   0.00000
  32       14D 0        0.02034   0.01020   0.01014   0.00005
  33       14D+1        0.03322   0.01595   0.01727  -0.00132
  34       14D-1        0.08157   0.06200   0.01957   0.04243
  35       14D+2        0.00046   0.00009   0.00038  -0.00029
  36       14D-2        0.00000   0.00000   0.00000   0.00000
  37       15F 0        0.00979   0.00450   0.00528  -0.00078
  38       15F+1        0.01121   0.00530   0.00592  -0.00062
  39       15F-1        0.01635   0.00943   0.00692   0.00251
  40       15F+2        0.00007   0.00002   0.00005  -0.00004
  41       15F-2        0.00000   0.00000   0.00000   0.00000
  42       15F+3        0.00003   0.00000   0.00003  -0.00003
  43       15F-3        0.00003   0.00000   0.00002  -0.00002
  44 2   O  1S          1.08405   0.54196   0.54210  -0.00014
  45        2S          0.90905   0.45456   0.45449   0.00007
  46        2PX         0.27500   0.13799   0.13700   0.00099
  47        2PY         0.34521   0.20577   0.13943   0.06634
  48        2PZ         0.33340   0.16737   0.16603   0.00134
  49        3S          1.04178   0.52525   0.51653   0.00873
  50        3PX         0.57562   0.28888   0.28673   0.00215
  51        3PY         0.69730   0.40689   0.29041   0.11648
  52        3PZ         0.68265   0.34309   0.33956   0.00353
  53        4S          0.82380   0.41129   0.41250  -0.00121
  54        4PX         0.52904   0.26295   0.26609  -0.00314
  55        4PY         0.57699   0.30133   0.27566   0.02567
  56        4PZ         0.53451   0.26517   0.26934  -0.00416
  57        5D 0        0.00008   0.00004   0.00004   0.00000
  58        5D+1        0.00004   0.00002   0.00002   0.00000
  59        5D-1        0.00004   0.00002   0.00002   0.00000
  60        5D+2        0.00000   0.00000   0.00000   0.00000
  61        5D-2        0.00000   0.00000   0.00000   0.00000
  62        6D 0        0.00455   0.00227   0.00227   0.00000
  63        6D+1        0.00293   0.00146   0.00147  -0.00001
  64        6D-1        0.00278   0.00131   0.00147  -0.00017
  65        6D+2        0.00001   0.00000   0.00001  -0.00001
  66        6D-2        0.00000   0.00000   0.00000   0.00000
  67        7D 0        0.00913   0.00479   0.00434   0.00045
  68        7D+1        0.01191   0.00582   0.00609  -0.00026
  69        7D-1        0.01247   0.00673   0.00574   0.00100
  70        7D+2        0.00001   0.00000   0.00001  -0.00001
  71        7D-2        0.00000   0.00000   0.00000   0.00000
  72        8F 0        0.00049   0.00023   0.00026  -0.00003
  73        8F+1        0.00037   0.00018   0.00020  -0.00002
  74        8F-1        0.00041   0.00018   0.00022  -0.00004
  75        8F+2        0.00000   0.00000   0.00000   0.00000
  76        8F-2        0.00000   0.00000   0.00000   0.00000
  77        8F+3        0.00000   0.00000   0.00000   0.00000
  78        8F-3        0.00000   0.00000   0.00000   0.00000
          Condensed to atoms (all electrons):
               1          2
     1  P   13.968252   0.578102
     2  O    0.578102   7.875544
          Atomic-Atomic Spin Densities.
               1          2
     1  P    0.870879  -0.088415
     2  O   -0.088415   0.305950
 Mulliken charges and spin densities:
               1          2
     1  P    0.453646   0.782465
     2  O   -0.453646   0.217535
 Sum of Mulliken charges =   0.00000   1.00000
 Mulliken charges and spin densities with hydrogens summed into heavy atoms:
               1          2
     1  P    0.453646   0.782465
     2  O   -0.453646   0.217535
 Electronic spatial extent (au):  <R**2>=             81.0793
 Charge=              0.0000 electrons
 Dipole moment (field-independent basis, Debye):
    X=              0.0000    Y=              0.0000    Z=              1.8782  Tot=              1.8782
 Quadrupole moment (field-independent basis, Debye-Ang):
   XX=            -16.1153   YY=            -19.0417   ZZ=            -19.3114
   XY=              0.0000   XZ=              0.0000   YZ=              0.0000
 Traceless Quadrupole moment (field-independent basis, Debye-Ang):
   XX=              2.0408   YY=             -0.8856   ZZ=             -1.1553
   XY=              0.0000   XZ=              0.0000   YZ=              0.0000
 Octapole moment (field-independent basis, Debye-Ang**2):
  XXX=              0.0000  YYY=              0.0000  ZZZ=             -2.6674  XYY=              0.0000
  XXY=              0.0000  XXZ=             -0.5099  XZZ=              0.0000  YZZ=              0.0000
  YYZ=             -2.7210  XYZ=              0.0000
 Hexadecapole moment (field-independent basis, Debye-Ang**3):
 XXXX=            -19.0842 YYYY=            -29.1673 ZZZZ=            -73.3960 XXXY=              0.0000
 XXXZ=              0.0000 YYYX=              0.0000 YYYZ=              0.0000 ZZZX=              0.0000
 ZZZY=              0.0000 XXYY=             -8.0391 XXZZ=            -14.7164 YYZZ=            -18.3325
 XXYZ=              0.0000 YYXZ=              0.0000 ZZXY=              0.0000
 N-N= 4.302629273494D+01 E-N=-1.076784290104D+03  KE= 4.159025145605D+02
 Symmetry A1   KE= 3.468475945772D+02
 Symmetry A2   KE= 4.971663730554D-35
 Symmetry B1   KE= 3.355950253307D+01
 Symmetry B2   KE= 3.549541745028D+01
 Orbital energies and kinetic energies (alpha):
                                 1                 2
   1         O               -77.116722        106.088375
   2         O               -19.159189         29.124111
   3         O                -6.609482         15.626103
   4         O                -4.773389         14.772011
   5         O                -4.770507         14.800558
   6         O                -4.766893         14.781689
   7         O                -1.030265          2.954638
   8         O                -0.561048          2.515310
   9         O                -0.412416          2.092868
  10         O                -0.397865          2.016260
  11         O                -0.396061          2.355685
  12         O                -0.202248          1.820761
  13         V                -0.129558          1.733817
  14         V                 0.006856          0.989058
  15         V                 0.152334          0.905196
  16         V                 0.155583          0.963311
  17         V                 0.157023          0.633206
  18         V                 0.159110          0.634682
  19         V                 0.176455          1.048640
  20         V                 0.247240          1.046925
  21         V                 0.251970          1.071299
  22         V                 0.286379          1.479814
  23         V                 0.412384          2.431902
  24         V                 0.655122          1.610204
  25         V                 0.655378          1.614709
  26         V                 0.746513          1.666646
  27         V                 0.780963          1.361486
  28         V                 0.781795          1.356083
  29         V                 0.830138          2.146438
  30         V                 0.832082          2.155047
  31         V                 0.924347          2.580078
  32         V                 0.927964          2.614732
  33         V                 0.946211          3.060864
  34         V                 1.073359          3.244737
  35         V                 1.213040          2.397696
  36         V                 1.216128          2.369027
  37         V                 1.284753          2.024966
  38         V                 1.285281          2.025228
  39         V                 1.375629          4.789498
  40         V                 1.375636          4.798342
  41         V                 1.439625          2.157669
  42         V                 1.441657          2.158185
  43         V                 1.544850          4.222461
  44         V                 1.607188          4.721223
  45         V                 1.734591          3.067097
  46         V                 1.735136          3.051025
  47         V                 2.105884          4.739080
  48         V                 3.342386          5.106570
  49         V                 3.342995          5.106545
  50         V                 3.394440          5.348279
  51         V                 3.395065          5.346891
  52         V                 3.510420          5.900505
  53         V                 3.990909          8.440325
  54         V                 3.991765          8.439360
  55         V                 4.146977          8.316139
  56         V                 4.154683          8.321897
  57         V                 4.257633          9.210415
  58         V                 4.895996         11.650762
  59         V                 4.900865         11.674315
  60         V                 4.997932          6.309540
  61         V                 4.997960          6.309473
  62         V                 5.110724          6.498720
  63         V                 5.111068          6.498902
  64         V                 5.369310         13.412926
  65         V                 5.567797          7.885720
  66         V                 5.588542          7.244953
  67         V                 5.592007          7.246236
  68         V                 7.485866         25.035884
  69         V                13.708652         43.687568
  70         V                13.709687         43.659363
  71         V                13.945245         36.056077
  72         V                14.228604         20.587388
  73         V                14.229566         20.590264
  74         V                14.301689         21.131167
  75         V                14.308567         21.119421
  76         V                14.804863         29.182230
  77         V                49.903613        123.712388
  78         V               163.452277        421.758112
 Orbital energies and kinetic energies (beta):
                                 1                 2
   1         O               -77.113282        106.093765
   2         O               -19.151882         29.135652
   3         O                -6.606229         15.621400
   4         O                -4.771568         14.768910
   5         O                -4.765183         14.779194
   6         O                -4.758967         14.784923
   7         O                -1.016332          2.924046
   8         O                -0.534719          2.555444
   9         O                -0.392640          2.002322
  10         O                -0.379894          2.292182
  11         O                -0.370818          1.996307
  12         V                -0.120331          1.711199
  13         V                -0.089042          1.619170
  14         V                 0.013632          0.967249
  15         V                 0.157273          0.980457
  16         V                 0.171653          1.042438
  17         V                 0.174984          0.758256
  18         V                 0.178690          0.615805
  19         V                 0.188654          0.905890
  20         V                 0.253539          1.077547
  21         V                 0.271039          1.071096
  22         V                 0.291104          1.482308
  23         V                 0.421747          2.490537
  24         V                 0.655918          1.616553
  25         V                 0.672499          1.612284
  26         V                 0.748242          1.667012
  27         V                 0.787420          1.303716
  28         V                 0.788151          1.311651
  29         V                 0.855149          2.241188
  30         V                 0.855762          2.230639
  31         V                 0.930349          2.622384
  32         V                 0.945699          2.649540
  33         V                 0.956559          3.062835
  34         V                 1.081267          3.246206
  35         V                 1.213722          2.409117
  36         V                 1.233028          2.439976
  37         V                 1.318254          2.062688
  38         V                 1.318587          2.045152
  39         V                 1.381095          4.730677
  40         V                 1.408350          4.701903
  41         V                 1.458578          2.191745
  42         V                 1.459506          2.158097
  43         V                 1.550837          4.151216
  44         V                 1.613808          4.762343
  45         V                 1.735703          3.081118
  46         V                 1.757872          3.112974
  47         V                 2.113685          4.742449
  48         V                 3.361746          5.109577
  49         V                 3.362188          5.106973
  50         V                 3.397289          5.349488
  51         V                 3.414213          5.351635
  52         V                 3.519230          5.898011
  53         V                 4.000162          8.430977
  54         V                 4.000653          8.428561
  55         V                 4.147403          8.313571
  56         V                 4.163786          8.308775
  57         V                 4.264705          9.198822
  58         V                 4.905973         11.668390
  59         V                 4.925905         11.663351
  60         V                 5.014326          6.319715
  61         V                 5.014386          6.325920
  62         V                 5.121773          6.499680
  63         V                 5.121920          6.498604
  64         V                 5.377076         13.425597
  65         V                 5.574574          7.863577
  66         V                 5.590809          7.244181
  67         V                 5.607261          7.243861
  68         V                 7.490708         25.040839
  69         V                13.711387         43.689606
  70         V                13.725953         43.683120
  71         V                13.950891         36.169322
  72         V                14.257439         20.602788
  73         V                14.257487         20.589406
  74         V                14.312248         21.117883
  75         V                14.329594         21.113380
  76         V                14.813790         29.059341
  77         V                49.910818        123.706689
  78         V               163.455439        421.755870
 Total kinetic energy from orbitals= 4.159025145605D+02
                          Isotropic Fermi Contact Couplings
        Atom                 a.u.       MegaHertz       Gauss      10(-4) cm-1
     1  P(31)             -0.00106      -1.91593      -0.68365      -0.63909
     2  O(17)              0.02853     -17.29537      -6.17142      -5.76912
 --------------------------------------------------------
       Center         ----  Spin Dipole Couplings  ----
                      3XX-RR        3YY-RR        3ZZ-RR
 --------------------------------------------------------
     1   Atom       -1.158342      2.367635     -1.209293
     2   Atom       -0.613410      1.190799     -0.577389
 --------------------------------------------------------
                        XY            XZ            YZ
 --------------------------------------------------------
     1   Atom        0.000000      0.000000      0.000000
     2   Atom        0.000000      0.000000      0.000000
 --------------------------------------------------------


 ---------------------------------------------------------------------------------
              Anisotropic Spin Dipole Couplings in Principal Axis System
 ---------------------------------------------------------------------------------

       Atom             a.u.   MegaHertz   Gauss  10(-4) cm-1        Axes

              Baa    -1.2093  -261.430   -93.285   -87.204  0.0000  0.0000  1.0000
     1 P(31)  Bbb    -1.1583  -250.415   -89.354   -83.529  1.0000  0.0000  0.0000
              Bcc     2.3676   511.844   182.639   170.733  0.0000  1.0000  0.0000
 
              Baa    -0.6134    44.386    15.838    14.806  1.0000  0.0000  0.0000
     2 O(17)  Bbb    -0.5774    41.779    14.908    13.936  0.0000  0.0000  1.0000
              Bcc     1.1908   -86.165   -30.746   -28.742  0.0000  1.0000  0.0000
 

 ---------------------------------------------------------------------------------

 No NMR shielding tensors so no spin-rotation constants.
 Leave Link  601 at Wed Apr  8 12:49:38 2026, MaxMem=    33554432 cpu:         0.1
 (Enter /opt/g09/g09/l9999.exe)
 1\1\GINC-KADET27\FOpt\UB3LYP\6-311G(3df)\O1P1(2)\MDOROHUN\08-Apr-2026\
 0\\#p UB3LYP/6-311G(3df) Opt Pop=Full\\PO optymalizacja baza 6-311G(3d
 f)\\0,2\P,0.,0.,0.0120644146\O,0.,0.,1.4879355854\\Version=ES64L-G09Re
 vD.01\HF=-416.5993734\S2=0.754498\S2-1=0.\S2A=0.750011\RMSD=9.336e-09\
 RMSF=2.228e-06\Dipole=0.,0.,-0.7389527\Quadrupole=1.517306,-0.6584007,
 -0.8589053,0.,0.,0.\PG=C*V [C*(O1P1)]\\@


 THERE ARE PEOPLE SO ADDICTED TO EXAGERATING THEY
 CAN'T TELL THE TRUTH WITHOUT LYING. -- FORTUNE COOKIE
 Job cpu time:       0 days  0 hours  0 minutes  3.7 seconds.
 File lengths (MBytes):  RWF=      7 Int=      0 D2E=      0 Chk=      2 Scr=      1
 Normal termination of Gaussian 09 at Wed Apr  8 12:49:38 2026.
