 Entering Gaussian System, Link 0=/opt/g09/g09/g09
 Input=INPUTS/cc_pVQZ.inp
 Output=INPUTS/cc_pVQZ.log
 Initial command:
 /opt/g09/g09/l1.exe "/tmp/Gau-10658.inp" -scrdir="/tmp/"
 Entering Link 1 = /opt/g09/g09/l1.exe PID=     10660.
  
 Copyright (c) 1988,1990,1992,1993,1995,1998,2003,2009,2013,
            Gaussian, Inc.  All Rights Reserved.
  
 This is part of the Gaussian(R) 09 program.  It is based on
 the Gaussian(R) 03 system (copyright 2003, Gaussian, Inc.),
 the Gaussian(R) 98 system (copyright 1998, Gaussian, Inc.),
 the Gaussian(R) 94 system (copyright 1995, Gaussian, Inc.),
 the Gaussian 92(TM) system (copyright 1992, Gaussian, Inc.),
 the Gaussian 90(TM) system (copyright 1990, Gaussian, Inc.),
 the Gaussian 88(TM) system (copyright 1988, Gaussian, Inc.),
 the Gaussian 86(TM) system (copyright 1986, Carnegie Mellon
 University), and the Gaussian 82(TM) system (copyright 1983,
 Carnegie Mellon University). Gaussian is a federally registered
 trademark of Gaussian, Inc.
  
 This software contains proprietary and confidential information,
 including trade secrets, belonging to Gaussian, Inc.
  
 This software is provided under written license and may be
 used, copied, transmitted, or stored only in accord with that
 written license.
  
 The following legend is applicable only to US Government
 contracts under FAR:
  
                    RESTRICTED RIGHTS LEGEND
  
 Use, reproduction and disclosure by the US Government is
 subject to restrictions as set forth in subparagraphs (a)
 and (c) of the Commercial Computer Software - Restricted
 Rights clause in FAR 52.227-19.
  
 Gaussian, Inc.
 340 Quinnipiac St., Bldg. 40, Wallingford CT 06492
  
  
 ---------------------------------------------------------------
 Warning -- This program may not be used in any manner that
 competes with the business of Gaussian, Inc. or will provide
 assistance to any competitor of Gaussian, Inc.  The licensee
 of this program is prohibited from giving any competitor of
 Gaussian, Inc. access to this program.  By using this program,
 the user acknowledges that Gaussian, Inc. is engaged in the
 business of creating and licensing software in the field of
 computational chemistry and represents and warrants to the
 licensee that it is not a competitor of Gaussian, Inc. and that
 it will not use this program in any manner prohibited above.
 ---------------------------------------------------------------
  

 Cite this work as:
 Gaussian 09, Revision D.01,
 M. J. Frisch, G. W. Trucks, H. B. Schlegel, G. E. Scuseria, 
 M. A. Robb, J. R. Cheeseman, G. Scalmani, V. Barone, B. Mennucci, 
 G. A. Petersson, H. Nakatsuji, M. Caricato, X. Li, H. P. Hratchian, 
 A. F. Izmaylov, J. Bloino, G. Zheng, J. L. Sonnenberg, M. Hada, 
 M. Ehara, K. Toyota, R. Fukuda, J. Hasegawa, M. Ishida, T. Nakajima, 
 Y. Honda, O. Kitao, H. Nakai, T. Vreven, J. A. Montgomery, Jr., 
 J. E. Peralta, F. Ogliaro, M. Bearpark, J. J. Heyd, E. Brothers, 
 K. N. Kudin, V. N. Staroverov, T. Keith, R. Kobayashi, J. Normand, 
 K. Raghavachari, A. Rendell, J. C. Burant, S. S. Iyengar, J. Tomasi, 
 M. Cossi, N. Rega, J. M. Millam, M. Klene, J. E. Knox, J. B. Cross, 
 V. Bakken, C. Adamo, J. Jaramillo, R. Gomperts, R. E. Stratmann, 
 O. Yazyev, A. J. Austin, R. Cammi, C. Pomelli, J. W. Ochterski, 
 R. L. Martin, K. Morokuma, V. G. Zakrzewski, G. A. Voth, 
 P. Salvador, J. J. Dannenberg, S. Dapprich, A. D. Daniels, 
 O. Farkas, J. B. Foresman, J. V. Ortiz, J. Cioslowski, 
 and D. J. Fox, Gaussian, Inc., Wallingford CT, 2013.
 
 ******************************************
 Gaussian 09:  ES64L-G09RevD.01 24-Apr-2013
                 8-Apr-2026 
 ******************************************
 ------------------------------
 #p UB3LYP/cc-pVQZ Opt Pop=Full
 ------------------------------
 1/14=-1,18=20,19=15,26=3,38=1/1,3;
 2/9=110,12=2,17=6,18=5,40=1/2;
 3/5=16,6=2,11=2,16=1,25=1,30=1,71=1,74=-5,116=2/1,2,3;
 4//1;
 5/5=2,38=5/2;
 6/7=3,28=1/1;
 7//1,2,3,16;
 1/14=-1,18=20,19=15,26=3/3(2);
 2/9=110/2;
 99//99;
 2/9=110/2;
 3/5=16,6=2,11=2,16=1,25=1,30=1,71=1,74=-5,116=2/1,2,3;
 4/5=5,16=3,69=1/1;
 5/5=2,38=5/2;
 7//1,2,3,16;
 1/14=-1,18=20,19=15,26=3/3(-5);
 2/9=110/2;
 6/7=3,19=2,28=1/1;
 99/9=1/99;
 Leave Link    1 at Wed Apr  8 12:51:41 2026, MaxMem=           0 cpu:         0.0
 (Enter /opt/g09/g09/l101.exe)
 -----------------------------
 PO optymalizacja baza cc-pVQZ
 -----------------------------
 Symbolic Z-matrix:
 Charge =  0 Multiplicity = 2
 P                     0.        0.        0. 
 O                     0.        0.        1.5 
 
 NAtoms=      2 NQM=        2 NQMF=       0 NMMI=      0 NMMIF=      0
                NMic=       0 NMicF=      0.
                    Isotopes and Nuclear Properties:
 (Nuclear quadrupole moments (NQMom) in fm**2, nuclear magnetic moments (NMagM)
  in nuclear magnetons)

  Atom         1           2
 IAtWgt=          31          16
 AtmWgt=  30.9737634  15.9949146
 NucSpn=           1           0
 AtZEff=   0.0000000   0.0000000
 NQMom=    0.0000000   0.0000000
 NMagM=    1.1316000   0.0000000
 AtZNuc=  15.0000000   8.0000000
 Leave Link  101 at Wed Apr  8 12:51:41 2026, MaxMem=    33554432 cpu:         0.0
 (Enter /opt/g09/g09/l103.exe)

 GradGradGradGradGradGradGradGradGradGradGradGradGradGradGradGradGradGrad
 Berny optimization.
 Initialization pass.
                           ----------------------------
                           !    Initial Parameters    !
                           ! (Angstroms and Degrees)  !
 --------------------------                            --------------------------
 ! Name  Definition              Value          Derivative Info.                !
 --------------------------------------------------------------------------------
 ! R1    R(1,2)                  1.5            estimate D2E/DX2                !
 --------------------------------------------------------------------------------
 Trust Radius=3.00D-01 FncErr=1.00D-07 GrdErr=1.00D-06
 Number of steps in this run=     20 maximum allowed number of steps=    100.
 GradGradGradGradGradGradGradGradGradGradGradGradGradGradGradGradGradGrad

 Leave Link  103 at Wed Apr  8 12:51:41 2026, MaxMem=    33554432 cpu:         0.0
 (Enter /opt/g09/g09/l202.exe)
                          Input orientation:                          
 ---------------------------------------------------------------------
 Center     Atomic      Atomic             Coordinates (Angstroms)
 Number     Number       Type             X           Y           Z
 ---------------------------------------------------------------------
      1         15           0        0.000000    0.000000    0.000000
      2          8           0        0.000000    0.000000    1.500000
 ---------------------------------------------------------------------
 Stoichiometry    OP(2)
 Framework group  C*V[C*(OP)]
 Deg. of freedom     1
 Full point group                 C*V     NOp   4
 Largest Abelian subgroup         C2V     NOp   4
 Largest concise Abelian subgroup C1      NOp   1
                         Standard orientation:                         
 ---------------------------------------------------------------------
 Center     Atomic      Atomic             Coordinates (Angstroms)
 Number     Number       Type             X           Y           Z
 ---------------------------------------------------------------------
      1         15           0        0.000000    0.000000    0.521739
      2          8           0        0.000000    0.000000   -0.978261
 ---------------------------------------------------------------------
 Rotational constants (GHZ):      0.0000000     21.2944835     21.2944835
 Leave Link  202 at Wed Apr  8 12:51:41 2026, MaxMem=    33554432 cpu:         0.0
 (Enter /opt/g09/g09/l301.exe)
 Standard basis: CC-pVQZ (5D, 7F)
 Ernie: Thresh=  0.10000D-02 Tol=  0.10000D-05 Strict=F.
 Ernie:  17 primitive shells out of 100 were deleted.
 There are    62 symmetry adapted cartesian basis functions of A1  symmetry.
 There are    16 symmetry adapted cartesian basis functions of A2  symmetry.
 There are    33 symmetry adapted cartesian basis functions of B1  symmetry.
 There are    33 symmetry adapted cartesian basis functions of B2  symmetry.
 There are    46 symmetry adapted basis functions of A1  symmetry.
 There are    14 symmetry adapted basis functions of A2  symmetry.
 There are    27 symmetry adapted basis functions of B1  symmetry.
 There are    27 symmetry adapted basis functions of B2  symmetry.
   114 basis functions,   223 primitive gaussians,   144 cartesian basis functions
    12 alpha electrons       11 beta electrons
       nuclear repulsion energy        42.3341766872 Hartrees.
 IExCor=  402 DFT=T Ex+Corr=B3LYP ExCW=0 ScaHFX=  0.200000
 ScaDFX=  0.800000  0.720000  1.000000  0.810000 ScalE2=  1.000000  1.000000
 IRadAn=      0 IRanWt=     -1 IRanGd=            0 ICorTp=0 IEmpDi=  4
 NAtoms=    2 NActive=    2 NUniq=    2 SFac= 1.00D+00 NAtFMM=   60 NAOKFM=F Big=F
 Integral buffers will be    131072 words long.
 Raffenetti 2 integral format.
 Two-electron integral symmetry is turned on.
 Leave Link  301 at Wed Apr  8 12:51:41 2026, MaxMem=    33554432 cpu:         0.0
 (Enter /opt/g09/g09/l302.exe)
 NPDir=0 NMtPBC=     1 NCelOv=     1 NCel=       1 NClECP=     1 NCelD=      1
         NCelK=      1 NCelE2=     1 NClLst=     1 CellRange=     0.0.
 One-electron integrals computed using PRISM.
 NBasis=   114 RedAO= T EigKep=  1.55D-03  NBF=    46    14    27    27
 NBsUse=   114 1.00D-06 EigRej= -1.00D+00 NBFU=    46    14    27    27
 Precomputing XC quadrature grid using
 IXCGrd= 4 IRadAn=           0 IRanWt=          -1 IRanGd=           0 AccXCQ= 0.00D+00.
 Generated NRdTot=       0 NPtTot=           0 NUsed=           0 NTot=          32
 NSgBfM=   144   144   144   144   144 MxSgAt=     2 MxSgA2=     2.
 Leave Link  302 at Wed Apr  8 12:51:41 2026, MaxMem=    33554432 cpu:         0.1
 (Enter /opt/g09/g09/l303.exe)
 DipDrv:  MaxL=1.
 Leave Link  303 at Wed Apr  8 12:51:41 2026, MaxMem=    33554432 cpu:         0.0
 (Enter /opt/g09/g09/l401.exe)
 ExpMin= 7.70D-02 ExpMax= 6.15D+05 ExpMxC= 1.92D+03 IAcc=2 IRadAn=         4 AccDes= 0.00D+00
 Harris functional with IExCor=  402 and IRadAn=       4 diagonalized for initial guess.
 HarFok:  IExCor=  402 AccDes= 0.00D+00 IRadAn=         4 IDoV= 1 UseB2=F ITyADJ=14
 ICtDFT=  3500011 ScaDFX=  1.000000  1.000000  1.000000  1.000000
 FoFCou: FMM=F IPFlag=           0 FMFlag=      100000 FMFlg1=           0
         NFxFlg=           0 DoJE=T BraDBF=F KetDBF=T FulRan=T
         wScrn=  0.000000 ICntrl=     500 IOpCl=  0 I1Cent=   200000004 NGrid=           0
         NMat0=    1 NMatS0=      1 NMatT0=    0 NMatD0=    1 NMtDS0=    0 NMtDT0=    0
 Petite list used in FoFCou.
 Harris En= -416.629182191207    
 JPrj=0 DoOrth=F DoCkMO=F.
 Initial guess orbital symmetries:
 Alpha Orbitals:
       Occupied  (SG) (SG) (SG) (SG) (PI) (PI) (SG) (SG) (PI) (PI)
                 (SG) (PI)
       Virtual   (PI) (SG) (SG) (PI) (PI) (SG) (DLTA) (DLTA) (PI)
                 (PI) (SG) (PI) (PI) (SG) (DLTA) (DLTA) (SG) (PI)
                 (PI) (PHI) (PHI) (DLTA) (DLTA) (SG) (PI) (PI)
                 (PI) (PI) (SG) (SG) (DLTA) (DLTA) (SG) (PI) (PI)
                 (SG) (PI) (PI) (DLTA) (DLTA) (PI) (PI) (SG) (PHI)
                 (PHI) (DLTA) (DLTA) (?A) (?A) (PHI) (PHI) (PI)
                 (PI) (DLTA) (DLTA) (SG) (SG) (PHI) (PHI) (PI)
                 (PI) (SG) (DLTA) (DLTA) (SG) (DLTA) (DLTA) (PI)
                 (PI) (PI) (PI) (SG) (SG) (PI) (PI) (SG) (?A) (?A)
                 (PHI) (PHI) (DLTA) (DLTA) (SG) (PI) (PI) (PI)
                 (PI) (SG) (PHI) (PHI) (DLTA) (DLTA) (SG) (PI)
                 (PI) (DLTA) (DLTA) (PI) (PI) (SG) (SG) (SG)
 Beta  Orbitals:
       Occupied  (SG) (SG) (SG) (SG) (PI) (PI) (SG) (SG) (PI) (PI)
                 (SG)
       Virtual   (PI) (PI) (SG) (SG) (PI) (PI) (SG) (DLTA) (DLTA)
                 (PI) (PI) (SG) (PI) (PI) (SG) (DLTA) (DLTA) (SG)
                 (PI) (PI) (PHI) (PHI) (DLTA) (DLTA) (SG) (PI)
                 (PI) (PI) (PI) (SG) (SG) (DLTA) (DLTA) (SG) (PI)
                 (PI) (SG) (PI) (PI) (DLTA) (DLTA) (PI) (PI) (SG)
                 (PHI) (PHI) (DLTA) (DLTA) (?A) (?A) (PHI) (PHI)
                 (PI) (PI) (DLTA) (DLTA) (SG) (SG) (PHI) (PHI)
                 (PI) (PI) (SG) (DLTA) (DLTA) (SG) (DLTA) (DLTA)
                 (PI) (PI) (PI) (PI) (SG) (SG) (PI) (PI) (SG) (?A)
                 (?A) (PHI) (PHI) (DLTA) (DLTA) (SG) (PI) (PI)
                 (PI) (PI) (SG) (PHI) (PHI) (DLTA) (DLTA) (SG)
                 (PI) (PI) (DLTA) (DLTA) (PI) (PI) (SG) (SG) (SG)
 Initial guess <Sx>= 0.0000 <Sy>= 0.0000 <Sz>= 0.5000 <S**2>= 0.7500 S= 0.5000
 Leave Link  401 at Wed Apr  8 12:51:41 2026, MaxMem=    33554432 cpu:         0.1
 (Enter /opt/g09/g09/l502.exe)
 UHF open shell SCF:
 Using DIIS extrapolation, IDIIS=  1040.
 Integral symmetry usage will be decided dynamically.
 Keep R1 and R2 ints in memory in symmetry-blocked form, NReq=27043172.
 IVT=       82744 IEndB=       82744 NGot=    33554432 MDV=    22542741
 LenX=    22542741 LenY=    22521564
 Requested convergence on RMS density matrix=1.00D-08 within 128 cycles.
 Requested convergence on MAX density matrix=1.00D-06.
 Requested convergence on             energy=1.00D-06.
 No special actions if energy rises.
 FoFCou: FMM=F IPFlag=           0 FMFlag=           0 FMFlg1=           0
         NFxFlg=           0 DoJE=F BraDBF=F KetDBF=F FulRan=T
         wScrn=  0.000000 ICntrl=     600 IOpCl=  0 I1Cent=           0 NGrid=           0
         NMat0=    1 NMatS0=   6555 NMatT0=    0 NMatD0=    1 NMtDS0=    0 NMtDT0=    0
 Petite list used in FoFCou.
 Integral accuracy reduced to 1.0D-05 until final iterations.

 Cycle   1  Pass 0  IDiag  1:
 E= -416.423823784446    
 DIIS: error= 6.05D-02 at cycle   1 NSaved=   1.
 NSaved= 1 IEnMin= 1 EnMin= -416.423823784446     IErMin= 1 ErrMin= 6.05D-02
 ErrMax= 6.05D-02  0.00D+00 EMaxC= 1.00D-01 BMatC= 1.00D+00 BMatP= 1.00D+00
 IDIUse=3 WtCom= 3.95D-01 WtEn= 6.05D-01
 Coeff-Com:  0.100D+01
 Coeff-En:   0.100D+01
 Coeff:      0.100D+01
 Gap=    -0.040 Goal=   None    Shift=    0.000
 Gap=     0.047 Goal=   None    Shift=    0.000
 GapD=   -0.040 DampG=0.250 DampE=0.500 DampFc=0.2500 IDamp=-1.
 Damping current iteration by 2.50D-01
 RMSDP=7.90D-03 MaxDP=2.01D-01              OVMax= 7.44D-01

 Cycle   2  Pass 0  IDiag  1:
 E= -416.448844897278     Delta-E=       -0.025021112832 Rises=F Damp=T
 DIIS: error= 1.11D-02 at cycle   2 NSaved=   2.
 NSaved= 2 IEnMin= 2 EnMin= -416.448844897278     IErMin= 2 ErrMin= 1.11D-02
 ErrMax= 1.11D-02  0.00D+00 EMaxC= 1.00D-01 BMatC= 4.94D-02 BMatP= 1.00D+00
 IDIUse=3 WtCom= 8.89D-01 WtEn= 1.11D-01
 Coeff-Com: -0.267D-02 0.100D+01
 Coeff-En:   0.429D+00 0.571D+00
 Coeff:      0.452D-01 0.955D+00
 Gap=     0.073 Goal=   None    Shift=    0.000
 Gap=     0.090 Goal=   None    Shift=    0.000
 RMSDP=1.40D-03 MaxDP=3.48D-02 DE=-2.50D-02 OVMax= 6.47D-01

 Cycle   3  Pass 0  IDiag  1:
 E= -416.599553451616     Delta-E=       -0.150708554338 Rises=F Damp=F
 DIIS: error= 2.15D-02 at cycle   3 NSaved=   3.
 NSaved= 3 IEnMin= 3 EnMin= -416.599553451616     IErMin= 2 ErrMin= 1.11D-02
 ErrMax= 2.15D-02  0.00D+00 EMaxC= 1.00D-01 BMatC= 5.23D-02 BMatP= 4.94D-02
 IDIUse=3 WtCom= 7.85D-01 WtEn= 2.15D-01
 Coeff-Com: -0.163D+00 0.406D+00 0.757D+00
 Coeff-En:   0.000D+00 0.000D+00 0.100D+01
 Coeff:     -0.128D+00 0.318D+00 0.809D+00
 Gap=     0.068 Goal=   None    Shift=    0.000
 Gap=     0.226 Goal=   None    Shift=    0.000
 RMSDP=8.65D-04 MaxDP=1.74D-02 DE=-1.51D-01 OVMax= 8.52D-02

 Cycle   4  Pass 0  IDiag  1:
 E= -416.611923792741     Delta-E=       -0.012370341125 Rises=F Damp=F
 DIIS: error= 9.52D-03 at cycle   4 NSaved=   4.
 NSaved= 4 IEnMin= 4 EnMin= -416.611923792741     IErMin= 4 ErrMin= 9.52D-03
 ErrMax= 9.52D-03  0.00D+00 EMaxC= 1.00D-01 BMatC= 1.44D-02 BMatP= 4.94D-02
 IDIUse=3 WtCom= 9.05D-01 WtEn= 9.52D-02
 Coeff-Com:  0.112D+00-0.161D+00 0.433D-01 0.101D+01
 Coeff-En:   0.000D+00 0.000D+00 0.203D+00 0.797D+00
 Coeff:      0.102D+00-0.146D+00 0.585D-01 0.985D+00
 Gap=     0.074 Goal=   None    Shift=    0.000
 Gap=     0.238 Goal=   None    Shift=    0.000
 RMSDP=1.49D-04 MaxDP=4.33D-03 DE=-1.24D-02 OVMax= 1.01D-02

 Cycle   5  Pass 0  IDiag  1:
 E= -416.614196305617     Delta-E=       -0.002272512876 Rises=F Damp=F
 DIIS: error= 4.36D-03 at cycle   5 NSaved=   5.
 NSaved= 5 IEnMin= 5 EnMin= -416.614196305617     IErMin= 5 ErrMin= 4.36D-03
 ErrMax= 4.36D-03  0.00D+00 EMaxC= 1.00D-01 BMatC= 2.01D-03 BMatP= 1.44D-02
 IDIUse=3 WtCom= 9.56D-01 WtEn= 4.36D-02
 Coeff-Com:  0.242D-01-0.346D-01 0.980D-01 0.685D-01 0.844D+00
 Coeff-En:   0.000D+00 0.000D+00 0.000D+00 0.000D+00 0.100D+01
 Coeff:      0.231D-01-0.331D-01 0.937D-01 0.655D-01 0.851D+00
 Gap=     0.073 Goal=   None    Shift=    0.000
 Gap=     0.241 Goal=   None    Shift=    0.000
 RMSDP=1.11D-04 MaxDP=2.49D-03 DE=-2.27D-03 OVMax= 1.13D-02

 Cycle   6  Pass 0  IDiag  1:
 E= -416.614709849672     Delta-E=       -0.000513544056 Rises=F Damp=F
 DIIS: error= 3.76D-04 at cycle   6 NSaved=   6.
 NSaved= 6 IEnMin= 6 EnMin= -416.614709849672     IErMin= 6 ErrMin= 3.76D-04
 ErrMax= 3.76D-04  0.00D+00 EMaxC= 1.00D-01 BMatC= 1.51D-05 BMatP= 2.01D-03
 IDIUse=3 WtCom= 9.96D-01 WtEn= 3.76D-03
 Coeff-Com: -0.702D-02 0.753D-02 0.327D-01-0.742D-01 0.155D+00 0.886D+00
 Coeff-En:   0.000D+00 0.000D+00 0.000D+00 0.000D+00 0.000D+00 0.100D+01
 Coeff:     -0.699D-02 0.750D-02 0.326D-01-0.739D-01 0.154D+00 0.887D+00
 Gap=     0.073 Goal=   None    Shift=    0.000
 Gap=     0.241 Goal=   None    Shift=    0.000
 RMSDP=1.79D-05 MaxDP=4.15D-04 DE=-5.14D-04 OVMax= 2.07D-03

 Cycle   7  Pass 0  IDiag  1:
 E= -416.614711842536     Delta-E=       -0.000001992863 Rises=F Damp=F
 DIIS: error= 3.01D-04 at cycle   7 NSaved=   7.
 NSaved= 7 IEnMin= 7 EnMin= -416.614711842536     IErMin= 7 ErrMin= 3.01D-04
 ErrMax= 3.01D-04  0.00D+00 EMaxC= 1.00D-01 BMatC= 9.40D-06 BMatP= 1.51D-05
 IDIUse=3 WtCom= 9.97D-01 WtEn= 3.01D-03
 Coeff-Com: -0.305D-03-0.302D-03-0.968D-02 0.924D-02-0.149D-01 0.343D-01
 Coeff-Com:  0.982D+00
 Coeff-En:   0.000D+00 0.000D+00 0.000D+00 0.000D+00 0.000D+00 0.350D+00
 Coeff-En:   0.650D+00
 Coeff:     -0.305D-03-0.301D-03-0.965D-02 0.922D-02-0.148D-01 0.352D-01
 Coeff:      0.981D+00
 Gap=     0.073 Goal=   None    Shift=    0.000
 Gap=     0.241 Goal=   None    Shift=    0.000
 RMSDP=7.74D-06 MaxDP=2.05D-04 DE=-1.99D-06 OVMax= 9.82D-04

 Initial convergence to 1.0D-05 achieved.  Increase integral accuracy.
 Cycle   8  Pass 1  IDiag  1:
 E= -416.614724392889     Delta-E=       -0.000012550353 Rises=F Damp=F
 DIIS: error= 8.01D-05 at cycle   1 NSaved=   1.
 NSaved= 1 IEnMin= 1 EnMin= -416.614724392889     IErMin= 1 ErrMin= 8.01D-05
 ErrMax= 8.01D-05  0.00D+00 EMaxC= 1.00D-01 BMatC= 1.27D-06 BMatP= 1.27D-06
 IDIUse=1 WtCom= 1.00D+00 WtEn= 0.00D+00
 Coeff-Com:  0.100D+01
 Coeff:      0.100D+01
 Gap=     0.073 Goal=   None    Shift=    0.000
 Gap=     0.241 Goal=   None    Shift=    0.000
 RMSDP=7.74D-06 MaxDP=2.05D-04 DE=-1.26D-05 OVMax= 2.60D-04

 Cycle   9  Pass 1  IDiag  1:
 E= -416.614724580657     Delta-E=       -0.000000187768 Rises=F Damp=F
 DIIS: error= 1.84D-05 at cycle   2 NSaved=   2.
 NSaved= 2 IEnMin= 2 EnMin= -416.614724580657     IErMin= 2 ErrMin= 1.84D-05
 ErrMax= 1.84D-05  0.00D+00 EMaxC= 1.00D-01 BMatC= 2.39D-08 BMatP= 1.27D-06
 IDIUse=1 WtCom= 1.00D+00 WtEn= 0.00D+00
 Coeff-Com: -0.288D-01 0.103D+01
 Coeff:     -0.288D-01 0.103D+01
 Gap=     0.073 Goal=   None    Shift=    0.000
 Gap=     0.241 Goal=   None    Shift=    0.000
 RMSDP=1.18D-06 MaxDP=3.90D-05 DE=-1.88D-07 OVMax= 1.83D-04

 Cycle  10  Pass 1  IDiag  1:
 E= -416.614724604711     Delta-E=       -0.000000024054 Rises=F Damp=F
 DIIS: error= 2.28D-05 at cycle   3 NSaved=   3.
 NSaved= 3 IEnMin= 3 EnMin= -416.614724604711     IErMin= 2 ErrMin= 1.84D-05
 ErrMax= 2.28D-05  0.00D+00 EMaxC= 1.00D-01 BMatC= 3.26D-08 BMatP= 2.39D-08
 IDIUse=1 WtCom= 1.00D+00 WtEn= 0.00D+00
 Coeff-Com: -0.239D-01 0.614D+00 0.410D+00
 Coeff:     -0.239D-01 0.614D+00 0.410D+00
 Gap=     0.073 Goal=   None    Shift=    0.000
 Gap=     0.241 Goal=   None    Shift=    0.000
 RMSDP=5.23D-07 MaxDP=1.92D-05 DE=-2.41D-08 OVMax= 9.37D-05

 Cycle  11  Pass 1  IDiag  1:
 E= -416.614724613001     Delta-E=       -0.000000008290 Rises=F Damp=F
 DIIS: error= 1.49D-05 at cycle   4 NSaved=   4.
 NSaved= 4 IEnMin= 4 EnMin= -416.614724613001     IErMin= 4 ErrMin= 1.49D-05
 ErrMax= 1.49D-05  0.00D+00 EMaxC= 1.00D-01 BMatC= 1.39D-08 BMatP= 2.39D-08
 IDIUse=1 WtCom= 1.00D+00 WtEn= 0.00D+00
 Coeff-Com: -0.193D-03-0.286D+00 0.407D+00 0.880D+00
 Coeff:     -0.193D-03-0.286D+00 0.407D+00 0.880D+00
 Gap=     0.073 Goal=   None    Shift=    0.000
 Gap=     0.241 Goal=   None    Shift=    0.000
 RMSDP=7.45D-07 MaxDP=2.70D-05 DE=-8.29D-09 OVMax= 1.26D-04

 Cycle  12  Pass 1  IDiag  1:
 E= -416.614724624493     Delta-E=       -0.000000011492 Rises=F Damp=F
 DIIS: error= 6.48D-06 at cycle   5 NSaved=   5.
 NSaved= 5 IEnMin= 5 EnMin= -416.614724624493     IErMin= 5 ErrMin= 6.48D-06
 ErrMax= 6.48D-06  0.00D+00 EMaxC= 1.00D-01 BMatC= 2.37D-09 BMatP= 1.39D-08
 IDIUse=1 WtCom= 1.00D+00 WtEn= 0.00D+00
 Coeff-Com:  0.135D-01-0.431D+00-0.986D-01 0.281D+00 0.123D+01
 Coeff:      0.135D-01-0.431D+00-0.986D-01 0.281D+00 0.123D+01
 Gap=     0.073 Goal=   None    Shift=    0.000
 Gap=     0.241 Goal=   None    Shift=    0.000
 RMSDP=7.66D-07 MaxDP=2.95D-05 DE=-1.15D-08 OVMax= 1.33D-04

 Cycle  13  Pass 1  IDiag  1:
 E= -416.614724628790     Delta-E=       -0.000000004297 Rises=F Damp=F
 DIIS: error= 1.30D-06 at cycle   6 NSaved=   6.
 NSaved= 6 IEnMin= 6 EnMin= -416.614724628790     IErMin= 6 ErrMin= 1.30D-06
 ErrMax= 1.30D-06  0.00D+00 EMaxC= 1.00D-01 BMatC= 1.26D-10 BMatP= 2.37D-09
 IDIUse=1 WtCom= 1.00D+00 WtEn= 0.00D+00
 Coeff-Com: -0.155D-03 0.250D-01-0.151D-01-0.112D+00 0.538D-01 0.105D+01
 Coeff:     -0.155D-03 0.250D-01-0.151D-01-0.112D+00 0.538D-01 0.105D+01
 Gap=     0.073 Goal=   None    Shift=    0.000
 Gap=     0.241 Goal=   None    Shift=    0.000
 RMSDP=9.93D-08 MaxDP=3.63D-06 DE=-4.30D-09 OVMax= 1.67D-05

 Cycle  14  Pass 1  IDiag  1:
 E= -416.614724628888     Delta-E=       -0.000000000098 Rises=F Damp=F
 DIIS: error= 2.43D-07 at cycle   7 NSaved=   7.
 NSaved= 7 IEnMin= 7 EnMin= -416.614724628888     IErMin= 7 ErrMin= 2.43D-07
 ErrMax= 2.43D-07  0.00D+00 EMaxC= 1.00D-01 BMatC= 6.57D-12 BMatP= 1.26D-10
 IDIUse=1 WtCom= 1.00D+00 WtEn= 0.00D+00
 Coeff-Com: -0.107D-02 0.330D-01 0.117D-01-0.539D-03-0.133D+00-0.115D+00
 Coeff-Com:  0.120D+01
 Coeff:     -0.107D-02 0.330D-01 0.117D-01-0.539D-03-0.133D+00-0.115D+00
 Coeff:      0.120D+01
 Gap=     0.073 Goal=   None    Shift=    0.000
 Gap=     0.241 Goal=   None    Shift=    0.000
 RMSDP=2.36D-08 MaxDP=6.56D-07 DE=-9.81D-11 OVMax= 2.81D-06

 Cycle  15  Pass 1  IDiag  1:
 E= -416.614724628893     Delta-E=       -0.000000000005 Rises=F Damp=F
 DIIS: error= 5.62D-08 at cycle   8 NSaved=   8.
 NSaved= 8 IEnMin= 8 EnMin= -416.614724628893     IErMin= 8 ErrMin= 5.62D-08
 ErrMax= 5.62D-08  0.00D+00 EMaxC= 1.00D-01 BMatC= 3.84D-13 BMatP= 6.57D-12
 IDIUse=1 WtCom= 1.00D+00 WtEn= 0.00D+00
 Coeff-Com:  0.108D-03-0.472D-02 0.684D-04 0.380D-02 0.157D-01-0.596D-01
 Coeff-Com: -0.131D+00 0.118D+01
 Coeff:      0.108D-03-0.472D-02 0.684D-04 0.380D-02 0.157D-01-0.596D-01
 Coeff:     -0.131D+00 0.118D+01
 Gap=     0.073 Goal=   None    Shift=    0.000
 Gap=     0.241 Goal=   None    Shift=    0.000
 RMSDP=4.18D-09 MaxDP=1.25D-07 DE=-4.66D-12 OVMax= 5.52D-07

 SCF Done:  E(UB3LYP) =  -416.614724629     A.U. after   15 cycles
            NFock= 15  Conv=0.42D-08     -V/T= 2.0036
 <Sx>= 0.0000 <Sy>= 0.0000 <Sz>= 0.5000 <S**2>= 0.7547 S= 0.5023
 <L.S>= 0.000000000000E+00
 KE= 4.151271051715D+02 PE=-1.074415131372D+03 EE= 2.003391248843D+02
 Annihilation of the first spin contaminant:
 S**2 before annihilation     0.7547,   after     0.7500
 Leave Link  502 at Wed Apr  8 12:51:43 2026, MaxMem=    33554432 cpu:         1.9
 (Enter /opt/g09/g09/l601.exe)
 Copying SCF densities to generalized density rwf, IOpCl= 1 IROHF=0.

 **********************************************************************

            Population analysis using the SCF density.

 **********************************************************************

 Orbital symmetries:
 Alpha Orbitals:
       Occupied  (SG) (SG) (SG) (PI) (PI) (SG) (SG) (SG) (PI) (SG)
                 (PI) (PI)
       Virtual   (PI) (SG) (SG) (PI) (PI) (?A) (?A) (?A) (PI) (PI)
                 (SG) (PI) (PI) (SG) (?B) (?B) (?C) (?C) (?B) (?B)
                 (?B) (?C) (?C) (SG) (PI) (PI) (PI) (SG) (PI) (SG)
                 (DLTA) (DLTA) (SG) (PI) (PI) (SG) (PI) (PI) (?D)
                 (?D) (?C) (?C) (?C) (?C) (?D) (?D) (?D) (?D) (?D)
                 (PHI) (PHI) (PI) (PI) (DLTA) (DLTA) (SG) (SG)
                 (?C) (?C) (?C) (?C) (SG) (?E) (?E) (?E) (DLTA)
                 (DLTA) (PI) (PI) (PI) (PI) (SG) (SG) (PI) (PI)
                 (SG) (?F) (?F) (PHI) (PHI) (DLTA) (DLTA) (SG)
                 (PI) (PI) (PI) (PI) (SG) (PHI) (PHI) (DLTA) (DLTA)
                 (SG) (PI) (PI) (DLTA) (DLTA) (PI) (PI) (SG) (SG)
                 (SG)
 Beta  Orbitals:
       Occupied  (SG) (SG) (SG) (PI) (SG) (PI) (SG) (SG) (PI) (SG)
                 (PI)
       Virtual   (PI) (PI) (?A) (?A) (PI) (PI) (?A) (?A) (?A) (PI)
                 (PI) (SG) (PI) (PI) (?B) (?B) (?B) (?C) (?C) (?B)
                 (?C) (?B) (?B) (?C) (?B) (?C) (?C) (?C) (SG) (?C)
                 (?D) (?D) (?D) (SG) (PI) (PI) (SG) (PI) (PI) (?E)
                 (?E) (?F) (?F) (?E) (?F) (?F) (?E) (?E) (?E) (?E)
                 (?F) (?F) (?F) (?E) (?E) (?F) (?E) (SG) (?G) (?G)
                 (?G) (?G) (SG) (?H) (?H) (?H) (DLTA) (DLTA) (PI)
                 (PI) (PI) (PI) (SG) (SG) (PI) (PI) (SG) (?I) (?I)
                 (PHI) (PHI) (?J) (?J) (?J) (PI) (PI) (PI) (PI)
                 (SG) (PHI) (PHI) (DLTA) (DLTA) (SG) (PI) (PI)
                 (DLTA) (DLTA) (PI) (PI) (SG) (SG) (SG)
 Unable to determine electronic state:  partially filled degenerate orbitals.
 Alpha  occ. eigenvalues --  -77.17592 -19.16442  -6.62791  -4.79377  -4.79062
 Alpha  occ. eigenvalues --   -4.78662  -1.02252  -0.56536  -0.40864  -0.39620
 Alpha  occ. eigenvalues --   -0.39345  -0.20771
 Alpha virt. eigenvalues --   -0.13470   0.00803   0.12389   0.15501   0.15733
 Alpha virt. eigenvalues --    0.18452   0.18674   0.20734   0.28517   0.29024
 Alpha virt. eigenvalues --    0.33988   0.48507   0.48536   0.52145   0.76575
 Alpha virt. eigenvalues --    0.76705   0.81283   0.81326   0.82348   0.82576
 Alpha virt. eigenvalues --    0.83602   0.84085   0.84120   0.91639   0.97743
 Alpha virt. eigenvalues --    0.97991   1.04114   1.04260   1.04272   1.17536
 Alpha virt. eigenvalues --    1.24689   1.24767   1.48136   1.61287   1.61373
 Alpha virt. eigenvalues --    1.76369   2.36885   2.37017   2.44222   2.44311
 Alpha virt. eigenvalues --    2.45384   2.45681   2.46807   2.46839   2.47487
 Alpha virt. eigenvalues --    2.52081   2.52108   2.52145   2.52272   2.53594
 Alpha virt. eigenvalues --    2.53630   2.65737   2.65963   2.66068   2.66252
 Alpha virt. eigenvalues --    2.71957   3.17483   3.18268   3.18470   3.21306
 Alpha virt. eigenvalues --    3.21313   3.29469   3.68400   3.68425   3.70647
 Alpha virt. eigenvalues --    3.93425   3.93489   4.19543   4.19648   4.37136
 Alpha virt. eigenvalues --    4.37435   4.44991   4.58525   5.42193   5.42919
 Alpha virt. eigenvalues --    7.35694   8.82335   8.82344   8.84249   8.84251
 Alpha virt. eigenvalues --    8.99022   8.99053   9.11083   9.11997   9.12326
 Alpha virt. eigenvalues --    9.91104   9.91256  10.65076  10.89976  10.89983
 Alpha virt. eigenvalues --   11.12465  11.12530  11.41033  11.68626  11.68633
 Alpha virt. eigenvalues --   11.92801  11.92899  12.18305  12.18805  12.43580
 Alpha virt. eigenvalues --   14.17602  40.55188
  Beta  occ. eigenvalues --  -77.17280 -19.15715  -6.62455  -4.79197  -4.78497
  Beta  occ. eigenvalues --   -4.77920  -1.00841  -0.53846  -0.38824  -0.38068
  Beta  occ. eigenvalues --   -0.36631
  Beta virt. eigenvalues --   -0.12539  -0.09348   0.01508   0.13104   0.15905
  Beta virt. eigenvalues --    0.17240   0.20501   0.20910   0.21638   0.29197
  Beta virt. eigenvalues --    0.31219   0.34377   0.48602   0.49446   0.52783
  Beta virt. eigenvalues --    0.77688   0.77712   0.83515   0.83615   0.83839
  Beta virt. eigenvalues --    0.84331   0.84938   0.85062   0.86322   0.92878
  Beta virt. eigenvalues --    0.98523   1.01123   1.04256   1.05195   1.06415
  Beta virt. eigenvalues --    1.18307   1.25829   1.25866   1.48829   1.61413
  Beta virt. eigenvalues --    1.62705   1.76971   2.37297   2.39215   2.45166
  Beta virt. eigenvalues --    2.45333   2.45460   2.47506   2.48278   2.48819
  Beta virt. eigenvalues --    2.48946   2.53636   2.53823   2.55895   2.55921
  Beta virt. eigenvalues --    2.56830   2.56849   2.65917   2.67827   2.68263
  Beta virt. eigenvalues --    2.68519   2.73502   3.17967   3.18302   3.20343
  Beta virt. eigenvalues --    3.22458   3.22461   3.30384   3.69571   3.69848
  Beta virt. eigenvalues --    3.71671   3.94897   3.94910   4.19819   4.21645
  Beta virt. eigenvalues --    4.37344   4.39257   4.45822   4.58816   5.42444
  Beta virt. eigenvalues --    5.44955   7.36390   8.83957   8.83966   8.85398
  Beta virt. eigenvalues --    8.85399   8.99871   8.99948   9.11862   9.12234
  Beta virt. eigenvalues --    9.13772   9.91789   9.93892  10.65938  10.92411
  Beta virt. eigenvalues --   10.92411  11.14148  11.14151  11.41805  11.68882
  Beta virt. eigenvalues --   11.70539  11.95502  11.95518  12.19148  12.20926
  Beta virt. eigenvalues --   12.44593  14.18309  40.56021
     Alpha Molecular Orbital Coefficients:
                           1         2         3         4         5
                           O         O         O         O         O
     Eigenvalues --   -77.17592 -19.16442  -6.62791  -4.79377  -4.79062
   1 1   P  1S          1.00089   0.00011   0.27193   0.00000   0.00000
   2        2S         -0.00028   0.00052  -0.47789   0.00000   0.00000
   3        3S          0.00360   0.00118   0.55106   0.00000   0.00000
   4        4S          0.00305  -0.00249  -0.05549   0.00000   0.00000
   5        5S         -0.00158   0.00952   0.01848   0.00000   0.00000
   6        6S          0.00013  -0.00134  -0.00198   0.00000   0.00000
   7        7PX         0.00000   0.00000   0.00000   1.02249   0.00000
   8        7PY         0.00000   0.00000   0.00000   0.00000   1.02219
   9        7PZ         0.00021   0.00135   0.00301   0.00000   0.00000
  10        8PX         0.00000   0.00000   0.00000   0.13784   0.00000
  11        8PY         0.00000   0.00000   0.00000   0.00000   0.13663
  12        8PZ         0.00031   0.00158  -0.00034   0.00000   0.00000
  13        9PX         0.00000   0.00000   0.00000   0.02252   0.00000
  14        9PY         0.00000   0.00000   0.00000   0.00000   0.02285
  15        9PZ        -0.00104  -0.00421   0.00235   0.00000   0.00000
  16       10PX         0.00000   0.00000   0.00000  -0.00127   0.00000
  17       10PY         0.00000   0.00000   0.00000   0.00000  -0.00134
  18       10PZ         0.00050  -0.00527  -0.00321   0.00000   0.00000
  19       11PX         0.00000   0.00000   0.00000   0.00006   0.00000
  20       11PY         0.00000   0.00000   0.00000   0.00000   0.00007
  21       11PZ         0.00008   0.00116  -0.00045   0.00000   0.00000
  22       12D 0       -0.00037   0.00054   0.00180   0.00000   0.00000
  23       12D+1        0.00000   0.00000   0.00000  -0.00006   0.00000
  24       12D-1        0.00000   0.00000   0.00000   0.00000  -0.00009
  25       12D+2        0.00000   0.00001  -0.00015   0.00000   0.00000
  26       12D-2        0.00000   0.00000   0.00000   0.00000   0.00000
  27       13D 0        0.00037   0.00514  -0.00096   0.00000   0.00000
  28       13D+1        0.00000   0.00000   0.00000   0.00089   0.00000
  29       13D-1        0.00000   0.00000   0.00000   0.00000   0.00103
  30       13D+2        0.00000   0.00000   0.00051   0.00000   0.00000
  31       13D-2        0.00000   0.00000   0.00000   0.00000   0.00000
  32       14D 0        0.00009  -0.00035   0.00048   0.00000   0.00000
  33       14D+1        0.00000   0.00000   0.00000  -0.00036   0.00000
  34       14D-1        0.00000   0.00000   0.00000   0.00000  -0.00039
  35       14D+2        0.00000   0.00000  -0.00062   0.00000   0.00000
  36       14D-2        0.00000   0.00000   0.00000   0.00000   0.00000
  37       15F 0        0.00017  -0.00166  -0.00062   0.00000   0.00000
  38       15F+1        0.00000   0.00000   0.00000  -0.00009   0.00000
  39       15F-1        0.00000   0.00000   0.00000   0.00000  -0.00014
  40       15F+2        0.00000  -0.00001  -0.00001   0.00000   0.00000
  41       15F-2        0.00000   0.00000   0.00000   0.00000   0.00000
  42       15F+3        0.00000   0.00000   0.00000  -0.00009   0.00000
  43       15F-3        0.00000   0.00000   0.00000   0.00000  -0.00009
  44       16F 0       -0.00024  -0.00145   0.00072   0.00000   0.00000
  45       16F+1        0.00000   0.00000   0.00000  -0.00052   0.00000
  46       16F-1        0.00000   0.00000   0.00000   0.00000  -0.00046
  47       16F+2        0.00000   0.00000   0.00007   0.00000   0.00000
  48       16F-2        0.00000   0.00000   0.00000   0.00000   0.00000
  49       16F+3        0.00000   0.00000   0.00000   0.00009   0.00000
  50       16F-3        0.00000   0.00000   0.00000   0.00000   0.00013
  51       17G 0        0.00004   0.00084  -0.00022   0.00000   0.00000
  52       17G+1        0.00000   0.00000   0.00000   0.00015   0.00000
  53       17G-1        0.00000   0.00000   0.00000   0.00000   0.00012
  54       17G+2        0.00000   0.00000  -0.00001   0.00000   0.00000
  55       17G-2        0.00000   0.00000   0.00000   0.00000   0.00000
  56       17G+3        0.00000   0.00000   0.00000  -0.00004   0.00000
  57       17G-3        0.00000   0.00000   0.00000   0.00000  -0.00003
  58       17G+4        0.00000   0.00000   0.00001   0.00000   0.00000
  59       17G-4        0.00000   0.00000   0.00000   0.00000   0.00000
  60 2   O  1S          0.00003   0.58551   0.00012   0.00000   0.00000
  61        2S          0.00007  -0.44381  -0.00025   0.00000   0.00000
  62        3S          0.00032   0.03325  -0.00064   0.00000   0.00000
  63        4S         -0.00036  -0.01912   0.00074   0.00000   0.00000
  64        5S          0.00029   0.00055  -0.00419   0.00000   0.00000
  65        6PX         0.00000   0.00000   0.00000   0.00008   0.00000
  66        6PY         0.00000   0.00000   0.00000   0.00000   0.00009
  67        6PZ        -0.00003   0.00078  -0.00012   0.00000   0.00000
  68        7PX         0.00000   0.00000   0.00000  -0.00010   0.00000
  69        7PY         0.00000   0.00000   0.00000   0.00000  -0.00006
  70        7PZ         0.00019   0.00135  -0.00022   0.00000   0.00000
  71        8PX         0.00000   0.00000   0.00000   0.00062   0.00000
  72        8PY         0.00000   0.00000   0.00000   0.00000   0.00064
  73        8PZ        -0.00060  -0.00693   0.00028   0.00000   0.00000
  74        9PX         0.00000   0.00000   0.00000   0.00017   0.00000
  75        9PY         0.00000   0.00000   0.00000   0.00000   0.00017
  76        9PZ         0.00002  -0.00080  -0.00149   0.00000   0.00000
  77       10D 0        0.00004   0.00022  -0.00004   0.00000   0.00000
  78       10D+1        0.00000   0.00000   0.00000   0.00000   0.00000
  79       10D-1        0.00000   0.00000   0.00000   0.00000   0.00000
  80       10D+2        0.00000  -0.00013   0.00000   0.00000   0.00000
  81       10D-2        0.00000   0.00000   0.00000   0.00000   0.00000
  82       11D 0       -0.00009  -0.00075   0.00002   0.00000   0.00000
  83       11D+1        0.00000   0.00000   0.00000   0.00008   0.00000
  84       11D-1        0.00000   0.00000   0.00000   0.00000   0.00008
  85       11D+2        0.00000   0.00001   0.00000   0.00000   0.00000
  86       11D-2        0.00000   0.00000   0.00000   0.00000   0.00000
  87       12D 0       -0.00045  -0.00236   0.00049   0.00000   0.00000
  88       12D+1        0.00000   0.00000   0.00000   0.00070   0.00000
  89       12D-1        0.00000   0.00000   0.00000   0.00000   0.00069
  90       12D+2        0.00000  -0.00002  -0.00002   0.00000   0.00000
  91       12D-2        0.00000   0.00000   0.00000   0.00000   0.00000
  92       13F 0        0.00004   0.00015  -0.00006   0.00000   0.00000
  93       13F+1        0.00000   0.00000   0.00000  -0.00008   0.00000
  94       13F-1        0.00000   0.00000   0.00000   0.00000  -0.00008
  95       13F+2        0.00000   0.00000   0.00000   0.00000   0.00000
  96       13F-2        0.00000   0.00000   0.00000   0.00000   0.00000
  97       13F+3        0.00000   0.00000   0.00000   0.00000   0.00000
  98       13F-3        0.00000   0.00000   0.00000   0.00000   0.00000
  99       14F 0       -0.00026  -0.00099   0.00015   0.00000   0.00000
 100       14F+1        0.00000   0.00000   0.00000   0.00061   0.00000
 101       14F-1        0.00000   0.00000   0.00000   0.00000   0.00059
 102       14F+2        0.00000   0.00000  -0.00002   0.00000   0.00000
 103       14F-2        0.00000   0.00000   0.00000   0.00000   0.00000
 104       14F+3        0.00000   0.00000   0.00000   0.00000   0.00000
 105       14F-3        0.00000   0.00000   0.00000   0.00000   0.00000
 106       15G 0       -0.00005  -0.00017  -0.00012   0.00000   0.00000
 107       15G+1        0.00000   0.00000   0.00000   0.00019   0.00000
 108       15G-1        0.00000   0.00000   0.00000   0.00000   0.00018
 109       15G+2        0.00000   0.00000   0.00000   0.00000   0.00000
 110       15G-2        0.00000   0.00000   0.00000   0.00000   0.00000
 111       15G+3        0.00000   0.00000   0.00000   0.00000   0.00000
 112       15G-3        0.00000   0.00000   0.00000   0.00000   0.00000
 113       15G+4        0.00000   0.00000   0.00000   0.00000   0.00000
 114       15G-4        0.00000   0.00000   0.00000   0.00000   0.00000
                           6         7         8         9        10
                           O         O         O         O         O
     Eigenvalues --    -4.78662  -1.02252  -0.56536  -0.40864  -0.39620
   1 1   P  1S         -0.00080   0.02887   0.06804   0.00000   0.02146
   2        2S          0.00228  -0.05828  -0.14137   0.00000  -0.04637
   3        3S         -0.00023   0.14534   0.36416   0.00000   0.11566
   4        4S         -0.00270   0.11190   0.26359   0.00000   0.03459
   5        5S          0.01881   0.15403   0.54441   0.00000   0.29008
   6        6S          0.00170   0.02061   0.16614   0.00000   0.31952
   7        7PX         0.00000   0.00000   0.00000   0.00000   0.00000
   8        7PY         0.00000   0.00000   0.00000  -0.13192   0.00000
   9        7PZ         1.02412   0.08537  -0.02083   0.00000  -0.17653
  10        8PX         0.00000   0.00000   0.00000   0.00000   0.00000
  11        8PY         0.00000   0.00000   0.00000  -0.00489   0.00000
  12        8PZ         0.13928   0.00474  -0.00155   0.00000  -0.00548
  13        9PX         0.00000   0.00000   0.00000   0.00000   0.00000
  14        9PY         0.00000   0.00000   0.00000   0.17865   0.00000
  15        9PZ         0.01480  -0.09294   0.02563   0.00000   0.24622
  16       10PX         0.00000   0.00000   0.00000   0.00000   0.00000
  17       10PY         0.00000   0.00000   0.00000   0.21163   0.00000
  18       10PZ        -0.01180  -0.04647   0.08968   0.00000   0.16006
  19       11PX         0.00000   0.00000   0.00000   0.00000   0.00000
  20       11PY         0.00000   0.00000   0.00000   0.07857   0.00000
  21       11PZ         0.00018  -0.00241   0.03722   0.00000   0.02693
  22       12D 0        0.00110   0.00666  -0.02810   0.00000   0.02499
  23       12D+1        0.00000   0.00000   0.00000   0.00000   0.00000
  24       12D-1        0.00000   0.00000   0.00000  -0.01914   0.00000
  25       12D+2        0.00001   0.00035  -0.00431   0.00000  -0.00475
  26       12D-2        0.00000   0.00000   0.00000   0.00000   0.00000
  27       13D 0        0.00795   0.02622  -0.01546   0.00000  -0.02745
  28       13D+1        0.00000   0.00000   0.00000   0.00000   0.00000
  29       13D-1        0.00000   0.00000   0.00000  -0.03303   0.00000
  30       13D+2       -0.00011  -0.00007  -0.00484   0.00000  -0.00473
  31       13D-2        0.00000   0.00000   0.00000   0.00000   0.00000
  32       14D 0       -0.00061   0.02549  -0.00145   0.00000  -0.03594
  33       14D+1        0.00000   0.00000   0.00000   0.00000   0.00000
  34       14D-1        0.00000   0.00000   0.00000  -0.02583   0.00000
  35       14D+2       -0.00002  -0.00010  -0.00148   0.00000  -0.00150
  36       14D-2        0.00000   0.00000   0.00000   0.00000   0.00000
  37       15F 0       -0.00105  -0.00295   0.00264   0.00000  -0.01657
  38       15F+1        0.00000   0.00000   0.00000   0.00000   0.00000
  39       15F-1        0.00000   0.00000   0.00000   0.00201   0.00000
  40       15F+2       -0.00007  -0.00115  -0.00273   0.00000  -0.00170
  41       15F-2        0.00000   0.00000   0.00000   0.00000   0.00000
  42       15F+3        0.00000   0.00000   0.00000   0.00000   0.00000
  43       15F-3        0.00000   0.00000   0.00000   0.00085   0.00000
  44       16F 0       -0.00268  -0.01072  -0.00228   0.00000   0.00845
  45       16F+1        0.00000   0.00000   0.00000   0.00000   0.00000
  46       16F-1        0.00000   0.00000   0.00000   0.00991   0.00000
  47       16F+2        0.00011  -0.00051  -0.00128   0.00000  -0.00037
  48       16F-2        0.00000   0.00000   0.00000   0.00000   0.00000
  49       16F+3        0.00000   0.00000   0.00000   0.00000   0.00000
  50       16F-3        0.00000   0.00000   0.00000  -0.00027   0.00000
  51       17G 0        0.00097   0.00386   0.00089   0.00000  -0.00205
  52       17G+1        0.00000   0.00000   0.00000   0.00000   0.00000
  53       17G-1        0.00000   0.00000   0.00000  -0.00342   0.00000
  54       17G+2       -0.00006   0.00066   0.00050   0.00000  -0.00063
  55       17G-2        0.00000   0.00000   0.00000   0.00000   0.00000
  56       17G+3        0.00000   0.00000   0.00000   0.00000   0.00000
  57       17G-3        0.00000   0.00000   0.00000  -0.00080   0.00000
  58       17G+4        0.00000  -0.00010  -0.00049   0.00000  -0.00035
  59       17G-4        0.00000   0.00000   0.00000   0.00000   0.00000
  60 2   O  1S          0.00056  -0.12086   0.05440   0.00000  -0.02048
  61        2S         -0.00025   0.20569  -0.09481   0.00000   0.03584
  62        3S          0.00277   0.24942  -0.12293   0.00000   0.04810
  63        4S         -0.00591   0.48381  -0.24086   0.00000   0.08995
  64        5S         -0.01687   0.20641  -0.13940   0.00000  -0.00013
  65        6PX         0.00000   0.00000   0.00000   0.00000   0.00000
  66        6PY         0.00000   0.00000   0.00000   0.16073   0.00000
  67        6PZ        -0.00077   0.03671   0.07562   0.00000  -0.14521
  68        7PX         0.00000   0.00000   0.00000   0.00000   0.00000
  69        7PY         0.00000   0.00000   0.00000   0.28161   0.00000
  70        7PZ         0.00179   0.06671   0.13041   0.00000  -0.25478
  71        8PX         0.00000   0.00000   0.00000   0.00000   0.00000
  72        8PY         0.00000   0.00000   0.00000   0.34810   0.00000
  73        8PZ        -0.01230   0.08129   0.15874   0.00000  -0.31869
  74        9PX         0.00000   0.00000   0.00000   0.00000   0.00000
  75        9PY         0.00000   0.00000   0.00000   0.19915   0.00000
  76        9PZ        -0.00678   0.01279   0.08909   0.00000  -0.21895
  77       10D 0        0.00024   0.00073   0.00162   0.00000  -0.00215
  78       10D+1        0.00000   0.00000   0.00000   0.00000   0.00000
  79       10D-1        0.00000   0.00000   0.00000   0.00176   0.00000
  80       10D+2        0.00000  -0.00047   0.00028   0.00000  -0.00009
  81       10D-2        0.00000   0.00000   0.00000   0.00000   0.00000
  82       11D 0       -0.00132   0.00798   0.00784   0.00000  -0.01133
  83       11D+1        0.00000   0.00000   0.00000   0.00000   0.00000
  84       11D-1        0.00000   0.00000   0.00000   0.01208   0.00000
  85       11D+2        0.00000  -0.00045   0.00028   0.00000  -0.00023
  86       11D-2        0.00000   0.00000   0.00000   0.00000   0.00000
  87       12D 0       -0.00668   0.00935   0.01506   0.00000  -0.02362
  88       12D+1        0.00000   0.00000   0.00000   0.00000   0.00000
  89       12D-1        0.00000   0.00000   0.00000   0.02441   0.00000
  90       12D+2        0.00000   0.00039   0.00063   0.00000  -0.00037
  91       12D-2        0.00000   0.00000   0.00000   0.00000   0.00000
  92       13F 0        0.00020   0.00071   0.00023   0.00000  -0.00074
  93       13F+1        0.00000   0.00000   0.00000   0.00000   0.00000
  94       13F-1        0.00000   0.00000   0.00000   0.00031   0.00000
  95       13F+2        0.00000  -0.00008  -0.00005   0.00000   0.00014
  96       13F-2        0.00000   0.00000   0.00000   0.00000   0.00000
  97       13F+3        0.00000   0.00000   0.00000   0.00000   0.00000
  98       13F-3        0.00000   0.00000   0.00000  -0.00021   0.00000
  99       14F 0       -0.00283   0.00280   0.00222   0.00000  -0.00287
 100       14F+1        0.00000   0.00000   0.00000   0.00000   0.00000
 101       14F-1        0.00000   0.00000   0.00000   0.00608   0.00000
 102       14F+2        0.00001   0.00054   0.00003   0.00000  -0.00035
 103       14F-2        0.00000   0.00000   0.00000   0.00000   0.00000
 104       14F+3        0.00000   0.00000   0.00000   0.00000   0.00000
 105       14F-3        0.00000   0.00000   0.00000   0.00063   0.00000
 106       15G 0       -0.00058   0.00052   0.00037   0.00000  -0.00084
 107       15G+1        0.00000   0.00000   0.00000   0.00000   0.00000
 108       15G-1        0.00000   0.00000   0.00000   0.00121   0.00000
 109       15G+2        0.00000   0.00008   0.00001   0.00000  -0.00008
 110       15G-2        0.00000   0.00000   0.00000   0.00000   0.00000
 111       15G+3        0.00000   0.00000   0.00000   0.00000   0.00000
 112       15G-3        0.00000   0.00000   0.00000   0.00009   0.00000
 113       15G+4        0.00000  -0.00003   0.00002   0.00000  -0.00001
 114       15G-4        0.00000   0.00000   0.00000   0.00000   0.00000
                          11        12        13        14        15
                           O         O         V         V         V
     Eigenvalues --    -0.39345  -0.20771  -0.13470   0.00803   0.12389
   1 1   P  1S          0.00000   0.00000   0.00000  -0.01275  -0.03476
   2        2S          0.00000   0.00000   0.00000   0.02535   0.10064
   3        3S          0.00000   0.00000   0.00000  -0.07492  -0.17650
   4        4S          0.00000   0.00000   0.00000  -0.02286  -0.05196
   5        5S          0.00000   0.00000   0.00000  -0.16420  -1.19453
   6        6S          0.00000   0.00000   0.00000  -0.63044   2.90253
   7        7PX        -0.13275   0.00000  -0.20265   0.00000   0.00000
   8        7PY         0.00000  -0.21163   0.00000   0.00000   0.00000
   9        7PZ         0.00000   0.00000   0.00000  -0.10641   0.05055
  10        8PX        -0.00430   0.00000  -0.00309   0.00000   0.00000
  11        8PY         0.00000  -0.00352   0.00000   0.00000   0.00000
  12        8PZ         0.00000   0.00000   0.00000  -0.01040  -0.01700
  13        9PX         0.17628   0.00000   0.27672   0.00000   0.00000
  14        9PY         0.00000   0.29427   0.00000   0.00000   0.00000
  15        9PZ         0.00000   0.00000   0.00000   0.16393   0.07492
  16       10PX         0.21807   0.00000   0.45746   0.00000   0.00000
  17       10PY         0.00000   0.48154   0.00000   0.00000   0.00000
  18       10PZ         0.00000   0.00000   0.00000   0.35896  -1.69136
  19       11PX         0.08603   0.00000   0.36594   0.00000   0.00000
  20       11PY         0.00000   0.31080   0.00000   0.00000   0.00000
  21       11PZ         0.00000   0.00000   0.00000   0.90554   0.25032
  22       12D 0        0.00000   0.00000   0.00000   0.12977   0.49968
  23       12D+1       -0.03355   0.00000   0.07921   0.00000   0.00000
  24       12D-1        0.00000   0.08358   0.00000   0.00000   0.00000
  25       12D+2        0.00000   0.00000   0.00000  -0.00590   0.01626
  26       12D-2        0.00000   0.00000   0.00000   0.00000   0.00000
  27       13D 0        0.00000   0.00000   0.00000   0.06481   0.22496
  28       13D+1       -0.03889   0.00000   0.03756   0.00000   0.00000
  29       13D-1        0.00000   0.04428   0.00000   0.00000   0.00000
  30       13D+2        0.00000   0.00000   0.00000   0.00261   0.00097
  31       13D-2        0.00000   0.00000   0.00000   0.00000   0.00000
  32       14D 0        0.00000   0.00000   0.00000   0.08727  -0.03610
  33       14D+1       -0.02865   0.00000   0.03329   0.00000   0.00000
  34       14D-1        0.00000   0.03385   0.00000   0.00000   0.00000
  35       14D+2        0.00000   0.00000   0.00000  -0.00051   0.00303
  36       14D-2        0.00000   0.00000   0.00000   0.00000   0.00000
  37       15F 0        0.00000   0.00000   0.00000   0.02780  -0.20117
  38       15F+1        0.00533   0.00000  -0.00651   0.00000   0.00000
  39       15F-1        0.00000  -0.00942   0.00000   0.00000   0.00000
  40       15F+2        0.00000   0.00000   0.00000   0.00287  -0.00342
  41       15F-2        0.00000   0.00000   0.00000   0.00000   0.00000
  42       15F+3        0.00020   0.00000  -0.00229   0.00000   0.00000
  43       15F-3        0.00000  -0.00018   0.00000   0.00000   0.00000
  44       16F 0        0.00000   0.00000   0.00000  -0.01211  -0.01669
  45       16F+1        0.01032   0.00000  -0.00937   0.00000   0.00000
  46       16F-1        0.00000  -0.00972   0.00000   0.00000   0.00000
  47       16F+2        0.00000   0.00000   0.00000  -0.00047   0.00146
  48       16F-2        0.00000   0.00000   0.00000   0.00000   0.00000
  49       16F+3       -0.00050   0.00000  -0.00099   0.00000   0.00000
  50       16F-3        0.00000  -0.00060   0.00000   0.00000   0.00000
  51       17G 0        0.00000   0.00000   0.00000  -0.00384   0.03762
  52       17G+1       -0.00357   0.00000  -0.00065   0.00000   0.00000
  53       17G-1        0.00000  -0.00067   0.00000   0.00000   0.00000
  54       17G+2        0.00000   0.00000   0.00000  -0.00126   0.00026
  55       17G-2        0.00000   0.00000   0.00000   0.00000   0.00000
  56       17G+3       -0.00098   0.00000  -0.00112   0.00000   0.00000
  57       17G-3        0.00000  -0.00060   0.00000   0.00000   0.00000
  58       17G+4        0.00000   0.00000   0.00000   0.00025   0.00008
  59       17G-4        0.00000   0.00000   0.00000   0.00000   0.00000
  60 2   O  1S          0.00000   0.00000   0.00000  -0.03454   0.00969
  61        2S          0.00000   0.00000   0.00000   0.06516  -0.01669
  62        3S          0.00000   0.00000   0.00000   0.10536  -0.01205
  63        4S          0.00000   0.00000   0.00000   0.08935  -0.01278
  64        5S          0.00000   0.00000   0.00000   0.79052  -2.05303
  65        6PX         0.15510   0.00000  -0.10329   0.00000   0.00000
  66        6PY         0.00000  -0.10400   0.00000   0.00000   0.00000
  67        6PZ         0.00000   0.00000   0.00000   0.05877   0.02340
  68        7PX         0.27151   0.00000  -0.18610   0.00000   0.00000
  69        7PY         0.00000  -0.18707   0.00000   0.00000   0.00000
  70        7PZ         0.00000   0.00000   0.00000   0.09631   0.08609
  71        8PX         0.33901   0.00000  -0.21917   0.00000   0.00000
  72        8PY         0.00000  -0.21891   0.00000   0.00000   0.00000
  73        8PZ         0.00000   0.00000   0.00000   0.18698  -0.21994
  74        9PX         0.20076   0.00000  -0.24294   0.00000   0.00000
  75        9PY         0.00000  -0.21609   0.00000   0.00000   0.00000
  76        9PZ         0.00000   0.00000   0.00000   0.23529  -0.82950
  77       10D 0        0.00000   0.00000   0.00000  -0.00033  -0.00022
  78       10D+1        0.00192   0.00000   0.00011   0.00000   0.00000
  79       10D-1        0.00000   0.00011   0.00000   0.00000   0.00000
  80       10D+2        0.00000   0.00000   0.00000  -0.00026   0.00012
  81       10D-2        0.00000   0.00000   0.00000   0.00000   0.00000
  82       11D 0        0.00000   0.00000   0.00000   0.00567  -0.00385
  83       11D+1        0.01228   0.00000   0.00130   0.00000   0.00000
  84       11D-1        0.00000   0.00103   0.00000   0.00000   0.00000
  85       11D+2        0.00000   0.00000   0.00000   0.00012   0.00004
  86       11D-2        0.00000   0.00000   0.00000   0.00000   0.00000
  87       12D 0        0.00000   0.00000   0.00000   0.02967  -0.15069
  88       12D+1        0.02701   0.00000  -0.00726   0.00000   0.00000
  89       12D-1        0.00000  -0.00494   0.00000   0.00000   0.00000
  90       12D+2        0.00000   0.00000   0.00000  -0.00108   0.00093
  91       12D-2        0.00000   0.00000   0.00000   0.00000   0.00000
  92       13F 0        0.00000   0.00000   0.00000   0.00002  -0.00042
  93       13F+1        0.00038   0.00000   0.00058   0.00000   0.00000
  94       13F-1        0.00000   0.00057   0.00000   0.00000   0.00000
  95       13F+2        0.00000   0.00000   0.00000  -0.00008   0.00001
  96       13F-2        0.00000   0.00000   0.00000   0.00000   0.00000
  97       13F+3       -0.00026   0.00000   0.00012   0.00000   0.00000
  98       13F-3        0.00000   0.00010   0.00000   0.00000   0.00000
  99       14F 0        0.00000   0.00000   0.00000   0.00712  -0.01048
 100       14F+1        0.00628   0.00000  -0.00298   0.00000   0.00000
 101       14F-1        0.00000  -0.00244   0.00000   0.00000   0.00000
 102       14F+2        0.00000   0.00000   0.00000   0.00030  -0.00004
 103       14F-2        0.00000   0.00000   0.00000   0.00000   0.00000
 104       14F+3        0.00061   0.00000  -0.00016   0.00000   0.00000
 105       14F-3        0.00000  -0.00020   0.00000   0.00000   0.00000
 106       15G 0        0.00000   0.00000   0.00000   0.00072  -0.00096
 107       15G+1        0.00117   0.00000  -0.00060   0.00000   0.00000
 108       15G-1        0.00000  -0.00055   0.00000   0.00000   0.00000
 109       15G+2        0.00000   0.00000   0.00000   0.00007   0.00001
 110       15G-2        0.00000   0.00000   0.00000   0.00000   0.00000
 111       15G+3        0.00010   0.00000  -0.00004   0.00000   0.00000
 112       15G-3        0.00000  -0.00003   0.00000   0.00000   0.00000
 113       15G+4        0.00000   0.00000   0.00000  -0.00001   0.00000
 114       15G-4        0.00000   0.00000   0.00000   0.00000   0.00000
                          16        17        18        19        20
                           V         V         V         V         V
     Eigenvalues --     0.15501   0.15733   0.18452   0.18674   0.20734
   1 1   P  1S          0.00000   0.00000   0.00000   0.00065   0.00810
   2        2S          0.00000   0.00000   0.00000  -0.00371  -0.00517
   3        3S          0.00000   0.00000   0.00000   0.00098   0.06684
   4        4S          0.00000   0.00000   0.00000  -0.03162   0.47591
   5        5S          0.00000   0.00000   0.00000   0.08814  -0.95923
   6        6S          0.00000   0.00000   0.00000   0.12398  -1.97529
   7        7PX         0.00000   0.12967   0.00000   0.00000   0.00000
   8        7PY         0.12383   0.00000   0.00000   0.00000   0.00000
   9        7PZ         0.00000   0.00000   0.00000  -0.01154   0.08341
  10        8PX         0.00000  -0.04193   0.00000   0.00000   0.00000
  11        8PY        -0.04115   0.00000   0.00000   0.00000   0.00000
  12        8PZ         0.00000   0.00000   0.00000   0.00150  -0.02426
  13        9PX         0.00000  -0.05751   0.00000   0.00000   0.00000
  14        9PY        -0.05584   0.00000   0.00000   0.00000   0.00000
  15        9PZ         0.00000   0.00000   0.00000   0.02106  -0.15706
  16       10PX         0.00000  -1.14986   0.00000   0.00000   0.00000
  17       10PY        -1.12058   0.00000   0.00000   0.00000   0.00000
  18       10PZ         0.00000   0.00000   0.00000  -0.04759   1.02910
  19       11PX         0.00000   1.48689   0.00000   0.00000   0.00000
  20       11PY         1.49942   0.00000   0.00000   0.00000   0.00000
  21       11PZ         0.00000   0.00000   0.00000  -0.14949   1.65905
  22       12D 0        0.00000   0.00000   0.00000   0.12241  -1.41749
  23       12D+1        0.00000   0.00109   0.00000   0.00000   0.00000
  24       12D-1        0.01081   0.00000   0.00000   0.00000   0.00000
  25       12D+2        0.00000   0.00000   0.00000   0.92056   0.08396
  26       12D-2        0.00000   0.00000   0.92359   0.00000   0.00000
  27       13D 0        0.00000   0.00000   0.00000   0.01964  -0.28780
  28       13D+1        0.00000   0.02310   0.00000   0.00000   0.00000
  29       13D-1        0.01401   0.00000   0.00000   0.00000   0.00000
  30       13D+2        0.00000   0.00000   0.00000   0.02058   0.00216
  31       13D-2        0.00000   0.00000   0.02234   0.00000   0.00000
  32       14D 0        0.00000   0.00000   0.00000   0.00770  -0.06741
  33       14D+1        0.00000   0.00194   0.00000   0.00000   0.00000
  34       14D-1        0.00269   0.00000   0.00000   0.00000   0.00000
  35       14D+2        0.00000   0.00000   0.00000   0.15436   0.01416
  36       14D-2        0.00000   0.00000   0.15475   0.00000   0.00000
  37       15F 0        0.00000   0.00000   0.00000  -0.01561   0.28473
  38       15F+1        0.00000   0.00304   0.00000   0.00000   0.00000
  39       15F-1        0.00536   0.00000   0.00000   0.00000   0.00000
  40       15F+2        0.00000   0.00000   0.00000   0.00559   0.00116
  41       15F-2        0.00000   0.00000   0.00751   0.00000   0.00000
  42       15F+3        0.00000   0.00097   0.00000   0.00000   0.00000
  43       15F-3        0.00115   0.00000   0.00000   0.00000   0.00000
  44       16F 0        0.00000   0.00000   0.00000  -0.00040   0.02099
  45       16F+1        0.00000  -0.00671   0.00000   0.00000   0.00000
  46       16F-1       -0.00611   0.00000   0.00000   0.00000   0.00000
  47       16F+2        0.00000   0.00000   0.00000  -0.00020  -0.00040
  48       16F-2        0.00000   0.00000  -0.00024   0.00000   0.00000
  49       16F+3        0.00000   0.00041   0.00000   0.00000   0.00000
  50       16F-3       -0.00032   0.00000   0.00000   0.00000   0.00000
  51       17G 0        0.00000   0.00000   0.00000   0.00192  -0.03969
  52       17G+1        0.00000   0.00752   0.00000   0.00000   0.00000
  53       17G-1        0.00722   0.00000   0.00000   0.00000   0.00000
  54       17G+2        0.00000   0.00000   0.00000  -0.00050   0.00074
  55       17G-2        0.00000   0.00000  -0.00076   0.00000   0.00000
  56       17G+3        0.00000   0.00061   0.00000   0.00000   0.00000
  57       17G-3        0.00038   0.00000   0.00000   0.00000   0.00000
  58       17G+4        0.00000   0.00000   0.00000  -0.00013  -0.00025
  59       17G-4        0.00000   0.00000   0.00001   0.00000   0.00000
  60 2   O  1S          0.00000   0.00000   0.00000   0.00161  -0.01244
  61        2S          0.00000   0.00000   0.00000  -0.00315   0.02678
  62        3S          0.00000   0.00000   0.00000  -0.00594   0.06161
  63        4S          0.00000   0.00000   0.00000   0.00715  -0.19125
  64        5S          0.00000   0.00000   0.00000  -0.26335   3.67103
  65        6PX         0.00000   0.00402   0.00000   0.00000   0.00000
  66        6PY         0.00172   0.00000   0.00000   0.00000   0.00000
  67        6PZ         0.00000   0.00000   0.00000   0.00437  -0.06969
  68        7PX         0.00000  -0.00170   0.00000   0.00000   0.00000
  69        7PY        -0.00701   0.00000   0.00000   0.00000   0.00000
  70        7PZ         0.00000   0.00000   0.00000   0.01210  -0.18777
  71        8PX         0.00000   0.03593   0.00000   0.00000   0.00000
  72        8PY         0.03425   0.00000   0.00000   0.00000   0.00000
  73        8PZ         0.00000   0.00000   0.00000  -0.01216   0.17294
  74        9PX         0.00000  -0.05161   0.00000   0.00000   0.00000
  75        9PY        -0.07240   0.00000   0.00000   0.00000   0.00000
  76        9PZ         0.00000   0.00000   0.00000  -0.07496   1.22766
  77       10D 0        0.00000   0.00000   0.00000   0.00002   0.00010
  78       10D+1        0.00000  -0.00138   0.00000   0.00000   0.00000
  79       10D-1       -0.00131   0.00000   0.00000   0.00000   0.00000
  80       10D+2        0.00000   0.00000   0.00000   0.00145   0.00006
  81       10D-2        0.00000   0.00000   0.00142   0.00000   0.00000
  82       11D 0        0.00000   0.00000   0.00000  -0.00007  -0.00333
  83       11D+1        0.00000  -0.00756   0.00000   0.00000   0.00000
  84       11D-1       -0.00709   0.00000   0.00000   0.00000   0.00000
  85       11D+2        0.00000   0.00000   0.00000   0.00767   0.00088
  86       11D-2        0.00000   0.00000   0.00775   0.00000   0.00000
  87       12D 0        0.00000   0.00000   0.00000  -0.01161   0.20815
  88       12D+1        0.00000   0.00087   0.00000   0.00000   0.00000
  89       12D-1        0.00013   0.00000   0.00000   0.00000   0.00000
  90       12D+2        0.00000   0.00000   0.00000   0.01881   0.00122
  91       12D-2        0.00000   0.00000   0.01859   0.00000   0.00000
  92       13F 0        0.00000   0.00000   0.00000   0.00012  -0.00236
  93       13F+1        0.00000  -0.00154   0.00000   0.00000   0.00000
  94       13F-1       -0.00141   0.00000   0.00000   0.00000   0.00000
  95       13F+2        0.00000   0.00000   0.00000   0.00049   0.00011
  96       13F-2        0.00000   0.00000   0.00048   0.00000   0.00000
  97       13F+3        0.00000  -0.00001   0.00000   0.00000   0.00000
  98       13F-3        0.00000   0.00000   0.00000   0.00000   0.00000
  99       14F 0        0.00000   0.00000   0.00000  -0.00115   0.02284
 100       14F+1        0.00000   0.00341   0.00000   0.00000   0.00000
 101       14F-1        0.00276   0.00000   0.00000   0.00000   0.00000
 102       14F+2        0.00000   0.00000   0.00000   0.00348   0.00018
 103       14F-2        0.00000   0.00000   0.00358   0.00000   0.00000
 104       14F+3        0.00000  -0.00001   0.00000   0.00000   0.00000
 105       14F-3       -0.00002   0.00000   0.00000   0.00000   0.00000
 106       15G 0        0.00000   0.00000   0.00000  -0.00012   0.00225
 107       15G+1        0.00000  -0.00020   0.00000   0.00000   0.00000
 108       15G-1       -0.00028   0.00000   0.00000   0.00000   0.00000
 109       15G+2        0.00000   0.00000   0.00000   0.00104   0.00006
 110       15G-2        0.00000   0.00000   0.00106   0.00000   0.00000
 111       15G+3        0.00000  -0.00002   0.00000   0.00000   0.00000
 112       15G-3       -0.00002   0.00000   0.00000   0.00000   0.00000
 113       15G+4        0.00000   0.00000   0.00000   0.00003   0.00000
 114       15G-4        0.00000   0.00000   0.00003   0.00000   0.00000
                          21        22        23        24        25
                           V         V         V         V         V
     Eigenvalues --     0.28517   0.29024   0.33988   0.48507   0.48536
   1 1   P  1S          0.00000   0.00000   0.02293   0.00000   0.00000
   2        2S          0.00000   0.00000  -0.08371   0.00000   0.00000
   3        3S          0.00000   0.00000   0.08965   0.00000   0.00000
   4        4S          0.00000   0.00000  -0.96887   0.00000   0.00000
   5        5S          0.00000   0.00000   3.96423   0.00000   0.00000
   6        6S          0.00000   0.00000   0.65075   0.00000   0.00000
   7        7PX         0.00000   0.02686   0.00000  -0.01755   0.00000
   8        7PY         0.03073   0.00000   0.00000   0.00000  -0.01583
   9        7PZ         0.00000   0.00000   0.14836   0.00000   0.00000
  10        8PX         0.00000   0.00032   0.00000  -0.00491   0.00000
  11        8PY         0.00123   0.00000   0.00000   0.00000  -0.00626
  12        8PZ         0.00000   0.00000   0.01397   0.00000   0.00000
  13        9PX         0.00000  -0.04876   0.00000   0.09068   0.00000
  14        9PY        -0.05944   0.00000   0.00000   0.00000   0.09348
  15        9PZ         0.00000   0.00000  -0.10615   0.00000   0.00000
  16       10PX         0.00000  -0.05341   0.00000  -0.41011   0.00000
  17       10PY        -0.04050   0.00000   0.00000   0.00000  -0.43340
  18       10PZ         0.00000   0.00000  -3.55780   0.00000   0.00000
  19       11PX         0.00000  -0.27476   0.00000  -0.71603   0.00000
  20       11PY        -0.27840   0.00000   0.00000   0.00000  -0.70424
  21       11PZ         0.00000   0.00000   0.59010   0.00000   0.00000
  22       12D 0        0.00000   0.00000   1.10783   0.00000   0.00000
  23       12D+1        0.00000   1.14792   0.00000   0.75062   0.00000
  24       12D-1        1.12912   0.00000   0.00000   0.00000   0.75918
  25       12D+2        0.00000   0.00000  -0.00116   0.00000   0.00000
  26       12D-2        0.00000   0.00000   0.00000   0.00000   0.00000
  27       13D 0        0.00000   0.00000   0.42385   0.00000   0.00000
  28       13D+1        0.00000  -0.03153   0.00000   0.24470   0.00000
  29       13D-1       -0.02469   0.00000   0.00000   0.00000   0.23844
  30       13D+2        0.00000   0.00000   0.00378   0.00000   0.00000
  31       13D-2        0.00000   0.00000   0.00000   0.00000   0.00000
  32       14D 0        0.00000   0.00000  -0.06366   0.00000   0.00000
  33       14D+1        0.00000   0.15988   0.00000   0.02787   0.00000
  34       14D-1        0.16127   0.00000   0.00000   0.00000   0.02782
  35       14D+2        0.00000   0.00000   0.00065   0.00000   0.00000
  36       14D-2        0.00000   0.00000   0.00000   0.00000   0.00000
  37       15F 0        0.00000   0.00000  -0.24664   0.00000   0.00000
  38       15F+1        0.00000   0.04921   0.00000  -0.32972   0.00000
  39       15F-1        0.06068   0.00000   0.00000   0.00000  -0.32751
  40       15F+2        0.00000   0.00000   0.00339   0.00000   0.00000
  41       15F-2        0.00000   0.00000   0.00000   0.00000   0.00000
  42       15F+3        0.00000  -0.00499   0.00000   0.00032   0.00000
  43       15F-3       -0.00411   0.00000   0.00000   0.00000   0.00040
  44       16F 0        0.00000   0.00000  -0.08518   0.00000   0.00000
  45       16F+1        0.00000   0.00974   0.00000   0.00459   0.00000
  46       16F-1        0.00987   0.00000   0.00000   0.00000   0.00584
  47       16F+2        0.00000   0.00000  -0.00125   0.00000   0.00000
  48       16F-2        0.00000   0.00000   0.00000   0.00000   0.00000
  49       16F+3        0.00000   0.00036   0.00000  -0.00056   0.00000
  50       16F-3        0.00029   0.00000   0.00000   0.00000  -0.00034
  51       17G 0        0.00000   0.00000   0.06877   0.00000   0.00000
  52       17G+1        0.00000  -0.00459   0.00000   0.05862   0.00000
  53       17G-1       -0.00598   0.00000   0.00000   0.00000   0.05851
  54       17G+2        0.00000   0.00000   0.00066   0.00000   0.00000
  55       17G-2        0.00000   0.00000   0.00000   0.00000   0.00000
  56       17G+3        0.00000   0.00019   0.00000  -0.00012   0.00000
  57       17G-3        0.00079   0.00000   0.00000   0.00000   0.00009
  58       17G+4        0.00000   0.00000   0.00002   0.00000   0.00000
  59       17G-4        0.00000   0.00000   0.00000   0.00000   0.00000
  60 2   O  1S          0.00000   0.00000   0.03708   0.00000   0.00000
  61        2S          0.00000   0.00000  -0.05482   0.00000   0.00000
  62        3S          0.00000   0.00000   0.00240   0.00000   0.00000
  63        4S          0.00000   0.00000  -0.25837   0.00000   0.00000
  64        5S          0.00000   0.00000  -3.75271   0.00000   0.00000
  65        6PX         0.00000   0.08738   0.00000  -0.10953   0.00000
  66        6PY         0.08503   0.00000   0.00000   0.00000  -0.10825
  67        6PZ         0.00000   0.00000  -0.01684   0.00000   0.00000
  68        7PX         0.00000   0.14219   0.00000  -0.10840   0.00000
  69        7PY         0.13958   0.00000   0.00000   0.00000  -0.10710
  70        7PZ         0.00000   0.00000   0.05429   0.00000   0.00000
  71        8PX         0.00000   0.24927   0.00000  -0.55729   0.00000
  72        8PY         0.23594   0.00000   0.00000   0.00000  -0.54816
  73        8PZ         0.00000   0.00000  -0.54531   0.00000   0.00000
  74        9PX         0.00000   0.39306   0.00000   2.16564   0.00000
  75        9PY         0.36924   0.00000   0.00000   0.00000   2.17112
  76        9PZ         0.00000   0.00000  -2.75382   0.00000   0.00000
  77       10D 0        0.00000   0.00000   0.00154   0.00000   0.00000
  78       10D+1        0.00000  -0.00036   0.00000   0.00180   0.00000
  79       10D-1       -0.00038   0.00000   0.00000   0.00000   0.00171
  80       10D+2        0.00000   0.00000   0.00015   0.00000   0.00000
  81       10D-2        0.00000   0.00000   0.00000   0.00000   0.00000
  82       11D 0        0.00000   0.00000   0.03637   0.00000   0.00000
  83       11D+1        0.00000  -0.01882   0.00000  -0.05345   0.00000
  84       11D-1       -0.01910   0.00000   0.00000   0.00000  -0.05319
  85       11D+2        0.00000   0.00000   0.00019   0.00000   0.00000
  86       11D-2        0.00000   0.00000   0.00000   0.00000   0.00000
  87       12D 0        0.00000   0.00000  -0.43145   0.00000   0.00000
  88       12D+1        0.00000  -0.00715   0.00000   0.20414   0.00000
  89       12D-1       -0.01247   0.00000   0.00000   0.00000   0.20369
  90       12D+2        0.00000   0.00000   0.00012   0.00000   0.00000
  91       12D-2        0.00000   0.00000   0.00000   0.00000   0.00000
  92       13F 0        0.00000   0.00000   0.00558   0.00000   0.00000
  93       13F+1        0.00000   0.00115   0.00000  -0.00906   0.00000
  94       13F-1        0.00116   0.00000   0.00000   0.00000  -0.00903
  95       13F+2        0.00000   0.00000  -0.00001   0.00000   0.00000
  96       13F-2        0.00000   0.00000   0.00000   0.00000   0.00000
  97       13F+3        0.00000  -0.00003   0.00000   0.00004   0.00000
  98       13F-3       -0.00001   0.00000   0.00000   0.00000   0.00001
  99       14F 0        0.00000   0.00000  -0.05552   0.00000   0.00000
 100       14F+1        0.00000  -0.01375   0.00000   0.04982   0.00000
 101       14F-1       -0.01461   0.00000   0.00000   0.00000   0.04986
 102       14F+2        0.00000   0.00000   0.00009   0.00000   0.00000
 103       14F-2        0.00000   0.00000   0.00000   0.00000   0.00000
 104       14F+3        0.00000  -0.00021   0.00000   0.00009   0.00000
 105       14F-3       -0.00019   0.00000   0.00000   0.00000   0.00012
 106       15G 0        0.00000   0.00000  -0.00432   0.00000   0.00000
 107       15G+1        0.00000  -0.00148   0.00000   0.00290   0.00000
 108       15G-1       -0.00156   0.00000   0.00000   0.00000   0.00283
 109       15G+2        0.00000   0.00000   0.00001   0.00000   0.00000
 110       15G-2        0.00000   0.00000   0.00000   0.00000   0.00000
 111       15G+3        0.00000  -0.00002   0.00000  -0.00005   0.00000
 112       15G-3       -0.00002   0.00000   0.00000   0.00000  -0.00005
 113       15G+4        0.00000   0.00000   0.00001   0.00000   0.00000
 114       15G-4        0.00000   0.00000   0.00000   0.00000   0.00000
                          26        27        28        29        30
                           V         V         V         V         V
     Eigenvalues --     0.52145   0.76575   0.76705   0.81283   0.81326
   1 1   P  1S         -0.00886   0.00000   0.00173   0.00000   0.00000
   2        2S          0.02615   0.00000  -0.00201   0.00000   0.00000
   3        3S         -0.05118   0.00000   0.01325   0.00000   0.00000
   4        4S         -0.43132   0.00000   0.03101   0.00000   0.00000
   5        5S          1.71961   0.00000  -0.03314   0.00000   0.00000
   6        6S         -0.37592   0.00000   0.13501   0.00000   0.00000
   7        7PX         0.00000   0.00000   0.00000   0.00000  -0.00021
   8        7PY         0.00000   0.00000   0.00000   0.00468   0.00000
   9        7PZ        -0.01302   0.00000   0.00762   0.00000   0.00000
  10        8PX         0.00000   0.00000   0.00000   0.00000   0.00053
  11        8PY         0.00000   0.00000   0.00000   0.00219   0.00000
  12        8PZ         0.07846   0.00000   0.00072   0.00000   0.00000
  13        9PX         0.00000   0.00000   0.00000   0.00000  -0.00049
  14        9PY         0.00000   0.00000   0.00000  -0.01893   0.00000
  15        9PZ        -0.21657   0.00000  -0.01718   0.00000   0.00000
  16       10PX         0.00000   0.00000   0.00000   0.00000  -0.00031
  17       10PY         0.00000   0.00000   0.00000   0.02143   0.00000
  18       10PZ        -0.36606   0.00000  -0.05105   0.00000   0.00000
  19       11PX         0.00000   0.00000   0.00000   0.00000  -0.00673
  20       11PY         0.00000   0.00000   0.00000  -0.01309   0.00000
  21       11PZ         0.26535   0.00000  -0.06716   0.00000   0.00000
  22       12D 0       -1.14549   0.00000   0.07182   0.00000   0.00000
  23       12D+1        0.00000   0.00000   0.00000   0.00000   0.03665
  24       12D-1        0.00000   0.00000   0.00000   0.01771   0.00000
  25       12D+2        0.01575   0.00000   0.10970   0.00000   0.00000
  26       12D-2        0.00000   0.10616   0.00000   0.00000   0.00000
  27       13D 0        0.64264   0.00000  -0.00440   0.00000   0.00000
  28       13D+1        0.00000   0.00000   0.00000   0.00000  -0.03142
  29       13D-1        0.00000   0.00000   0.00000  -0.01400   0.00000
  30       13D+2       -0.00500   0.00000  -0.04065   0.00000   0.00000
  31       13D-2        0.00000  -0.03883   0.00000   0.00000   0.00000
  32       14D 0       -0.06822   0.00000   0.00049   0.00000   0.00000
  33       14D+1        0.00000   0.00000   0.00000   0.00000  -0.00229
  34       14D-1        0.00000   0.00000   0.00000  -0.00026   0.00000
  35       14D+2        0.00193   0.00000   0.00177   0.00000   0.00000
  36       14D-2        0.00000   0.00131   0.00000   0.00000   0.00000
  37       15F 0       -0.22538   0.00000  -0.01437   0.00000   0.00000
  38       15F+1        0.00000   0.00000   0.00000   0.00000   0.02028
  39       15F-1        0.00000   0.00000   0.00000   0.00584   0.00000
  40       15F+2        0.01015   0.00000   0.90114   0.00000   0.00000
  41       15F-2        0.00000   0.90301   0.00000   0.00000   0.00000
  42       15F+3        0.00000   0.00000   0.00000   0.00000   1.05798
  43       15F-3        0.00000   0.00000   0.00000   1.05848   0.00000
  44       16F 0       -0.08930   0.00000   0.00262   0.00000   0.00000
  45       16F+1        0.00000   0.00000   0.00000   0.00000  -0.00100
  46       16F-1        0.00000   0.00000   0.00000   0.00020   0.00000
  47       16F+2       -0.00131   0.00000  -0.08259   0.00000   0.00000
  48       16F-2        0.00000  -0.08254   0.00000   0.00000   0.00000
  49       16F+3        0.00000   0.00000   0.00000   0.00000  -0.09845
  50       16F-3        0.00000   0.00000   0.00000  -0.09849   0.00000
  51       17G 0        0.01203   0.00000   0.00249   0.00000   0.00000
  52       17G+1        0.00000   0.00000   0.00000   0.00000   0.00090
  53       17G-1        0.00000   0.00000   0.00000   0.00015   0.00000
  54       17G+2       -0.00115   0.00000  -0.00512   0.00000   0.00000
  55       17G-2        0.00000  -0.00491   0.00000   0.00000   0.00000
  56       17G+3        0.00000   0.00000   0.00000   0.00000   0.00295
  57       17G-3        0.00000   0.00000   0.00000   0.00308   0.00000
  58       17G+4       -0.00030   0.00000  -0.00111   0.00000   0.00000
  59       17G-4        0.00000  -0.00102   0.00000   0.00000   0.00000
  60 2   O  1S         -0.03255   0.00000  -0.00194   0.00000   0.00000
  61        2S          0.05608   0.00000   0.00191   0.00000   0.00000
  62        3S          0.05394   0.00000  -0.00782   0.00000   0.00000
  63        4S          0.60045   0.00000   0.07156   0.00000   0.00000
  64        5S         -0.84114   0.00000  -0.23628   0.00000   0.00000
  65        6PX         0.00000   0.00000   0.00000   0.00000  -0.00260
  66        6PY         0.00000   0.00000   0.00000  -0.00087   0.00000
  67        6PZ         0.09311   0.00000  -0.00451   0.00000   0.00000
  68        7PX         0.00000   0.00000   0.00000   0.00000  -0.00352
  69        7PY         0.00000   0.00000   0.00000  -0.00107   0.00000
  70        7PZ         0.19779   0.00000  -0.00439   0.00000   0.00000
  71        8PX         0.00000   0.00000   0.00000   0.00000  -0.01298
  72        8PY         0.00000   0.00000   0.00000  -0.00488   0.00000
  73        8PZ         0.10683   0.00000  -0.02701   0.00000   0.00000
  74        9PX         0.00000   0.00000   0.00000   0.00000   0.02000
  75        9PY         0.00000   0.00000   0.00000   0.00877   0.00000
  76        9PZ        -1.43913   0.00000  -0.01826   0.00000   0.00000
  77       10D 0       -0.00075   0.00000   0.00047   0.00000   0.00000
  78       10D+1        0.00000   0.00000   0.00000   0.00000   0.00051
  79       10D-1        0.00000   0.00000   0.00000   0.00020   0.00000
  80       10D+2       -0.00039   0.00000  -0.01732   0.00000   0.00000
  81       10D-2        0.00000  -0.01725   0.00000   0.00000   0.00000
  82       11D 0        0.03059   0.00000  -0.00058   0.00000   0.00000
  83       11D+1        0.00000   0.00000   0.00000   0.00000  -0.00020
  84       11D-1        0.00000   0.00000   0.00000  -0.00020   0.00000
  85       11D+2        0.00069   0.00000   0.01291   0.00000   0.00000
  86       11D-2        0.00000   0.01268   0.00000   0.00000   0.00000
  87       12D 0       -0.35040   0.00000   0.00809   0.00000   0.00000
  88       12D+1        0.00000   0.00000   0.00000   0.00000   0.00607
  89       12D-1        0.00000   0.00000   0.00000   0.00164   0.00000
  90       12D+2       -0.00389   0.00000  -0.28384   0.00000   0.00000
  91       12D-2        0.00000  -0.28238   0.00000   0.00000   0.00000
  92       13F 0        0.00990   0.00000  -0.00007   0.00000   0.00000
  93       13F+1        0.00000   0.00000   0.00000   0.00000   0.00018
  94       13F-1        0.00000   0.00000   0.00000   0.00011   0.00000
  95       13F+2       -0.00005   0.00000  -0.00556   0.00000   0.00000
  96       13F-2        0.00000  -0.00559   0.00000   0.00000   0.00000
  97       13F+3        0.00000   0.00000   0.00000   0.00000   0.00007
  98       13F-3        0.00000   0.00000   0.00000   0.00008   0.00000
  99       14F 0       -0.07262   0.00000   0.00092   0.00000   0.00000
 100       14F+1        0.00000   0.00000   0.00000   0.00000  -0.00060
 101       14F-1        0.00000   0.00000   0.00000  -0.00063   0.00000
 102       14F+2        0.00011   0.00000   0.01905   0.00000   0.00000
 103       14F-2        0.00000   0.01917   0.00000   0.00000   0.00000
 104       14F+3        0.00000   0.00000   0.00000   0.00000   0.00617
 105       14F-3        0.00000   0.00000   0.00000   0.00614   0.00000
 106       15G 0       -0.00455   0.00000  -0.00003   0.00000   0.00000
 107       15G+1        0.00000   0.00000   0.00000   0.00000  -0.00001
 108       15G-1        0.00000   0.00000   0.00000  -0.00004   0.00000
 109       15G+2        0.00008   0.00000   0.00075   0.00000   0.00000
[...]
  95       13F+2        0.00000   0.00000   0.00000   0.00000
  96       13F-2        0.00000   0.00000   0.00000   0.00000
  97       13F+3        0.00000   0.00000   0.00000   0.00000
  98       13F-3        0.00000   0.00000   0.00000   0.00000
  99       14F 0        0.00094   0.00046   0.00048  -0.00002
 100       14F+1        0.00104   0.00051   0.00053  -0.00002
 101       14F-1        0.00086   0.00028   0.00057  -0.00029
 102       14F+2        0.00000   0.00000   0.00000   0.00000
 103       14F-2        0.00000   0.00000   0.00000   0.00000
 104       14F+3        0.00000   0.00000   0.00000   0.00000
 105       14F-3        0.00000   0.00000   0.00000   0.00000
 106       15G 0        0.00005   0.00002   0.00002   0.00000
 107       15G+1        0.00004   0.00002   0.00002   0.00000
 108       15G-1        0.00003   0.00001   0.00002   0.00000
 109       15G+2        0.00000   0.00000   0.00000   0.00000
 110       15G-2        0.00000   0.00000   0.00000   0.00000
 111       15G+3        0.00000   0.00000   0.00000   0.00000
 112       15G-3        0.00000   0.00000   0.00000   0.00000
 113       15G+4        0.00000   0.00000   0.00000   0.00000
 114       15G-4        0.00000   0.00000   0.00000   0.00000
          Condensed to atoms (all electrons):
               1          2
     1  P   14.081737   0.503086
     2  O    0.503086   7.912091
          Atomic-Atomic Spin Densities.
               1          2
     1  P    0.932279  -0.143733
     2  O   -0.143733   0.355187
 Mulliken charges and spin densities:
               1          2
     1  P    0.415177   0.788546
     2  O   -0.415177   0.211454
 Sum of Mulliken charges =   0.00000   1.00000
 Mulliken charges and spin densities with hydrogens summed into heavy atoms:
               1          2
     1  P    0.415177   0.788546
     2  O   -0.415177   0.211454
 Electronic spatial extent (au):  <R**2>=             81.1853
 Charge=              0.0000 electrons
 Dipole moment (field-independent basis, Debye):
    X=              0.0000    Y=              0.0000    Z=              2.0618  Tot=              2.0618
 Quadrupole moment (field-independent basis, Debye-Ang):
   XX=            -16.0630   YY=            -18.8574   ZZ=            -19.3759
   XY=              0.0000   XZ=              0.0000   YZ=              0.0000
 Traceless Quadrupole moment (field-independent basis, Debye-Ang):
   XX=              2.0358   YY=             -0.7586   ZZ=             -1.2771
   XY=              0.0000   XZ=              0.0000   YZ=              0.0000
 Octapole moment (field-independent basis, Debye-Ang**2):
  XXX=              0.0000  YYY=              0.0000  ZZZ=             -1.3182  XYY=              0.0000
  XXY=              0.0000  XXZ=             -0.3099  XZZ=              0.0000  YZZ=              0.0000
  YYZ=             -2.3179  XYZ=              0.0000
 Hexadecapole moment (field-independent basis, Debye-Ang**3):
 XXXX=            -18.2631 YYYY=            -26.8700 ZZZZ=            -74.2625 XXXY=              0.0000
 XXXZ=              0.0000 YYYX=              0.0000 YYYZ=              0.0000 ZZZX=              0.0000
 ZZZY=              0.0000 XXYY=             -7.5207 XXZZ=            -14.7386 YYZZ=            -17.8564
 XXYZ=              0.0000 YYXZ=              0.0000 ZZXY=              0.0000
 N-N= 4.290279111367D+01 E-N=-1.075614164793D+03  KE= 4.151938389865D+02
 Symmetry A1   KE= 3.465684077325D+02
 Symmetry A2   KE= 4.984490129112D-35
 Symmetry B1   KE= 3.335970863181D+01
 Symmetry B2   KE= 3.526572262219D+01
 Orbital energies and kinetic energies (alpha):
                                 1                 2
   1         O               -77.172393        106.163271
   2         O               -19.163126         29.069912
   3         O                -6.625456         15.622328
   4         O                -4.791243         14.676429
   5         O                -4.788073         14.690806
   6         O                -4.784146         14.687874
   7         O                -1.029589          2.952935
   8         O                -0.563255          2.490702
   9         O                -0.412766          2.086474
  10         O                -0.397995          2.009991
  11         O                -0.397315          2.317297
  12         O                -0.204915          1.805026
  13         V                -0.131936          1.723652
  14         V                 0.010454          1.013499
  15         V                 0.124212          0.930858
  16         V                 0.155190          0.801714
  17         V                 0.157578          0.851865
  18         V                 0.184811          0.698966
  19         V                 0.187063          0.701635
  20         V                 0.208454          1.021335
  21         V                 0.288912          1.156825
  22         V                 0.294034          1.171213
  23         V                 0.343425          1.361433
  24         V                 0.483166          1.174243
  25         V                 0.483510          1.152473
  26         V                 0.525266          1.553402
  27         V                 0.765754          1.207984
  28         V                 0.767071          1.210370
  29         V                 0.813228          1.207338
  30         V                 0.813654          1.207655
  31         V                 0.824169          1.858267
  32         V                 0.826455          1.860857
  33         V                 0.837469          2.401205
  34         V                 0.843867          1.995761
  35         V                 0.844185          1.985403
  36         V                 0.923892          2.108994
  37         V                 0.979071          2.358424
  38         V                 0.981648          2.329878
  39         V                 1.042490          3.169585
  40         V                 1.044146          2.830825
  41         V                 1.045830          2.764855
  42         V                 1.184070          3.547938
  43         V                 1.252405          1.760059
  44         V                 1.253182          1.760181
  45         V                 1.482319          3.550743
  46         V                 1.615587          2.386408
  47         V                 1.616343          2.386732
  48         V                 1.773779          3.909855
  49         V                 2.376748          5.070200
  50         V                 2.377558          5.076299
  51         V                 2.442554          3.550228
  52         V                 2.443477          3.553950
  53         V                 2.456213          3.983487
  54         V                 2.458904          3.963978
  55         V                 2.465768          3.216730
  56         V                 2.466093          3.217178
  57         V                 2.479959          4.108155
  58         V                 2.521608          3.353356
  59         V                 2.521937          3.288803
  60         V                 2.522481          4.550420
  61         V                 2.523772          4.610567
  62         V                 2.536853          3.755937
  63         V                 2.537213          3.756349
  64         V                 2.664266          4.175962
  65         V                 2.666349          4.176798
  66         V                 2.669140          3.590922
  67         V                 2.670967          3.591483
  68         V                 2.727746          4.278328
  69         V                 3.155852          5.700569
  70         V                 3.196304          4.370850
  71         V                 3.198345          4.374319
  72         V                 3.220919          3.922085
  73         V                 3.220994          3.922340
  74         V                 3.321280          5.238711
  75         V                 3.702895          5.193070
  76         V                 3.702991          5.044921
  77         V                 3.716945          7.488661
  78         V                 3.944808          5.117939
  79         V                 3.945433          5.117837
  80         V                 4.214703          5.922091
  81         V                 4.215823          5.922913
  82         V                 4.368814          6.549530
  83         V                 4.371831          6.544556
  84         V                 4.461818          7.341853
  85         V                 4.630570          8.349495
  86         V                 5.463275          8.526222
  87         V                 5.470545          8.526772
  88         V                 7.412249         11.611991
  89         V                 8.821005         10.154663
  90         V                 8.821065         10.154663
  91         V                 8.843654         10.209358
  92         V                 8.843675         10.209352
  93         V                 9.000633         10.447265
  94         V                 9.000953         10.447435
  95         V                 9.126520         11.465090
  96         V                 9.129787         11.475116
  97         V                 9.139103         11.017103
  98         V                 9.926475         18.824672
  99         V                 9.927934         18.842545
 100         V                10.645304         19.345239
 101         V                10.901197         13.569414
 102         V                10.901267         13.569408
 103         V                11.137724         13.843124
 104         V                11.138351         13.843086
 105         V                11.465308         16.689867
 106         V                11.716541         14.822831
 107         V                11.716562         14.821169
 108         V                11.930283         16.771260
 109         V                11.931252         16.771418
 110         V                12.192807         17.042257
 111         V                12.197786         17.044892
 112         V                12.422035         17.899079
 113         V                14.308344         23.318519
 114         V                40.613007        101.411166
 Orbital energies and kinetic energies (beta):
                                 1                 2
   1         O               -77.169304        106.165123
   2         O               -19.155903         29.083793
   3         O                -6.622130         15.621808
   4         O                -4.789459         14.675624
   5         O                -4.782511         14.687017
   6         O                -4.776759         14.690039
   7         O                -1.015729          2.922700
   8         O                -0.536659          2.532320
   9         O                -0.392841          1.997665
  10         O                -0.381398          2.251327
  11         O                -0.371013          1.993377
  12         V                -0.122642          1.702775
  13         V                -0.090741          1.617167
  14         V                 0.017328          0.985021
  15         V                 0.131413          0.937108
  16         V                 0.159283          0.865095
  17         V                 0.172670          0.910985
  18         V                 0.205494          0.796070
  19         V                 0.209367          0.682108
  20         V                 0.217397          0.943326
  21         V                 0.295766          1.174363
  22         V                 0.315987          1.163337
  23         V                 0.347202          1.356350
  24         V                 0.484092          1.180429
  25         V                 0.492461          1.191180
  26         V                 0.531786          1.574476
  27         V                 0.776956          1.215061
  28         V                 0.777189          1.207723
  29         V                 0.835878          1.276871
  30         V                 0.836594          1.217754
  31         V                 0.839699          2.381283
  32         V                 0.845984          1.932844
  33         V                 0.850429          1.924873
  34         V                 0.851237          1.878352
  35         V                 0.866226          2.000791
  36         V                 0.935946          2.095007
  37         V                 0.987155          2.257754
  38         V                 1.013476          2.151976
  39         V                 1.045385          2.902076
  40         V                 1.051611          3.130270
  41         V                 1.066731          3.025960
  42         V                 1.191837          3.536222
  43         V                 1.263817          1.756379
  44         V                 1.264159          1.759749
  45         V                 1.489375          3.579973
  46         V                 1.616878          2.387243
  47         V                 1.629678          2.393019
  48         V                 1.779938          3.929495
  49         V                 2.380112          5.074504
  50         V                 2.399219          5.077607
  51         V                 2.452326          3.558661
  52         V                 2.453789          3.547952
  53         V                 2.456989          3.969028
  54         V                 2.476606          3.793272
  55         V                 2.485645          3.234520
  56         V                 2.487495          4.126876
  57         V                 2.487821          3.410443
  58         V                 2.537283          4.443574
  59         V                 2.539247          4.391288
  60         V                 2.559657          3.453593
  61         V                 2.559964          3.478085
  62         V                 2.569206          3.763709
  63         V                 2.569393          3.763966
  64         V                 2.666074          4.174263
  65         V                 2.686596          3.641176
  66         V                 2.690977          3.597592
  67         V                 2.692365          4.179579
  68         V                 2.743153          4.235675
  69         V                 3.160535          5.683910
  70         V                 3.196619          4.371420
  71         V                 3.216881          4.367638
  72         V                 3.232470          3.921853
  73         V                 3.232508          3.922992
  74         V                 3.330051          5.251165
  75         V                 3.713264          5.821448
  76         V                 3.717888          5.028277
  77         V                 3.728871          6.838990
  78         V                 3.958968          5.134253
  79         V                 3.959109          5.133875
  80         V                 4.217345          5.920066
  81         V                 4.235012          5.909532
  82         V                 4.371065          6.546546
  83         V                 4.390771          6.541272
  84         V                 4.469510          7.319392
  85         V                 4.634100          8.382659
  86         V                 5.465706          8.528303
  87         V                 5.490672          8.536588
  88         V                 7.419274         11.614212
  89         V                 8.837077         10.154783
  90         V                 8.837132         10.154784
  91         V                 8.855016         10.209703
  92         V                 8.855025         10.209657
  93         V                 9.009154         10.449846
  94         V                 9.009792         10.446988
  95         V                 9.128870         11.461283
  96         V                 9.144118         11.457248
  97         V                 9.146736         11.014698
  98         V                 9.933253         18.846223
  99         V                 9.954112         18.850098
 100         V                10.653801         19.362505
 101         V                10.925365         13.570222
 102         V                10.925369         13.570229
 103         V                11.154389         13.842496
 104         V                11.154435         13.847893
 105         V                11.472949         16.662072
 106         V                11.718966         14.822266
 107         V                11.735325         14.820185
 108         V                11.957102         16.775494
 109         V                11.957253         16.775305
 110         V                12.201246         17.045695
 111         V                12.218914         17.046453
 112         V                12.432074         17.901477
 113         V                14.315352         23.317548
 114         V                40.621281        101.405162
 Total kinetic energy from orbitals= 4.151938389865D+02
                          Isotropic Fermi Contact Couplings
        Atom                 a.u.       MegaHertz       Gauss      10(-4) cm-1
     1  P(31)              0.02257      40.88060      14.58721      13.63630
     2  O(17)              0.01821     -11.03688      -3.93823      -3.68151
 --------------------------------------------------------
       Center         ----  Spin Dipole Couplings  ----
                      3XX-RR        3YY-RR        3ZZ-RR
 --------------------------------------------------------
     1   Atom       -1.059983      2.166828     -1.106845
     2   Atom       -0.621528      1.198383     -0.576855
 --------------------------------------------------------
                        XY            XZ            YZ
 --------------------------------------------------------
     1   Atom        0.000000      0.000000      0.000000
     2   Atom        0.000000      0.000000      0.000000
 --------------------------------------------------------


 ---------------------------------------------------------------------------------
              Anisotropic Spin Dipole Couplings in Principal Axis System
 ---------------------------------------------------------------------------------

       Atom             a.u.   MegaHertz   Gauss  10(-4) cm-1        Axes

              Baa    -1.1068  -239.282   -85.382   -79.816  0.0000  0.0000  1.0000
     1 P(31)  Bbb    -1.0600  -229.151   -81.767   -76.437  1.0000  0.0000  0.0000
              Bcc     2.1668   468.433   167.149   156.252  0.0000  1.0000  0.0000
 
              Baa    -0.6215    44.973    16.048    15.001  1.0000  0.0000  0.0000
     2 O(17)  Bbb    -0.5769    41.741    14.894    13.923  0.0000  0.0000  1.0000
              Bcc     1.1984   -86.714   -30.942   -28.925  0.0000  1.0000  0.0000
 

 ---------------------------------------------------------------------------------

 No NMR shielding tensors so no spin-rotation constants.
 Leave Link  601 at Wed Apr  8 12:51:55 2026, MaxMem=    33554432 cpu:         0.1
 (Enter /opt/g09/g09/l9999.exe)
 1\1\GINC-KADET27\FOpt\UB3LYP\CC-pVQZ\O1P1(2)\MDOROHUN\08-Apr-2026\0\\#
 p UB3LYP/cc-pVQZ Opt Pop=Full\\PO optymalizacja baza cc-pVQZ\\0,2\P,0.
 ,0.,0.0099401649\O,0.,0.,1.4900598351\\Version=ES64L-G09RevD.01\HF=-41
 6.6151527\S2=0.754627\S2-1=0.\S2A=0.750012\RMSD=5.288e-09\RMSF=1.335e-
 06\Dipole=0.,0.,-0.8111853\Quadrupole=1.5135442,-0.5640267,-0.9495175,
 0.,0.,0.\PG=C*V [C*(O1P1)]\\@


 YE HAVE SOWN MUCH, AND BRING IN LITTLE.
 YE EAT, BUT YE HAVE NOT ENOUGH.
 YE DRINK, BUT YE ARE NOT FILLED WITH DRINK.
 YE CLOTHE YOU, BUT THERE IS NONE WARM.
 AND HE THAT EARNETH WAGES EARNETH WAGES TO PUT
 IT INTO A BAG WITH HOLES.
                                     HAGGAI I,6
 Job cpu time:       0 days  0 hours  0 minutes 14.1 seconds.
 File lengths (MBytes):  RWF=     13 Int=      0 D2E=      0 Chk=      2 Scr=      1
 Normal termination of Gaussian 09 at Wed Apr  8 12:51:55 2026.
