 Entering Gaussian System, Link 0=/opt/g09/g09/g09
 Input=INPUTS/maug_cc_pV_Q_plus_d_Z.inp
 Output=INPUTS/maug_cc_pV_Q_plus_d_Z.log
 Initial command:
 /opt/g09/g09/l1.exe "/tmp/Gau-10955.inp" -scrdir="/tmp/"
 Entering Link 1 = /opt/g09/g09/l1.exe PID=     10957.
  
 Copyright (c) 1988,1990,1992,1993,1995,1998,2003,2009,2013,
            Gaussian, Inc.  All Rights Reserved.
  
 This is part of the Gaussian(R) 09 program.  It is based on
 the Gaussian(R) 03 system (copyright 2003, Gaussian, Inc.),
 the Gaussian(R) 98 system (copyright 1998, Gaussian, Inc.),
 the Gaussian(R) 94 system (copyright 1995, Gaussian, Inc.),
 the Gaussian 92(TM) system (copyright 1992, Gaussian, Inc.),
 the Gaussian 90(TM) system (copyright 1990, Gaussian, Inc.),
 the Gaussian 88(TM) system (copyright 1988, Gaussian, Inc.),
 the Gaussian 86(TM) system (copyright 1986, Carnegie Mellon
 University), and the Gaussian 82(TM) system (copyright 1983,
 Carnegie Mellon University). Gaussian is a federally registered
 trademark of Gaussian, Inc.
  
 This software contains proprietary and confidential information,
 including trade secrets, belonging to Gaussian, Inc.
  
 This software is provided under written license and may be
 used, copied, transmitted, or stored only in accord with that
 written license.
  
 The following legend is applicable only to US Government
 contracts under FAR:
  
                    RESTRICTED RIGHTS LEGEND
  
 Use, reproduction and disclosure by the US Government is
 subject to restrictions as set forth in subparagraphs (a)
 and (c) of the Commercial Computer Software - Restricted
 Rights clause in FAR 52.227-19.
  
 Gaussian, Inc.
 340 Quinnipiac St., Bldg. 40, Wallingford CT 06492
  
  
 ---------------------------------------------------------------
 Warning -- This program may not be used in any manner that
 competes with the business of Gaussian, Inc. or will provide
 assistance to any competitor of Gaussian, Inc.  The licensee
 of this program is prohibited from giving any competitor of
 Gaussian, Inc. access to this program.  By using this program,
 the user acknowledges that Gaussian, Inc. is engaged in the
 business of creating and licensing software in the field of
 computational chemistry and represents and warrants to the
 licensee that it is not a competitor of Gaussian, Inc. and that
 it will not use this program in any manner prohibited above.
 ---------------------------------------------------------------
  

 Cite this work as:
 Gaussian 09, Revision D.01,
 M. J. Frisch, G. W. Trucks, H. B. Schlegel, G. E. Scuseria, 
 M. A. Robb, J. R. Cheeseman, G. Scalmani, V. Barone, B. Mennucci, 
 G. A. Petersson, H. Nakatsuji, M. Caricato, X. Li, H. P. Hratchian, 
 A. F. Izmaylov, J. Bloino, G. Zheng, J. L. Sonnenberg, M. Hada, 
 M. Ehara, K. Toyota, R. Fukuda, J. Hasegawa, M. Ishida, T. Nakajima, 
 Y. Honda, O. Kitao, H. Nakai, T. Vreven, J. A. Montgomery, Jr., 
 J. E. Peralta, F. Ogliaro, M. Bearpark, J. J. Heyd, E. Brothers, 
 K. N. Kudin, V. N. Staroverov, T. Keith, R. Kobayashi, J. Normand, 
 K. Raghavachari, A. Rendell, J. C. Burant, S. S. Iyengar, J. Tomasi, 
 M. Cossi, N. Rega, J. M. Millam, M. Klene, J. E. Knox, J. B. Cross, 
 V. Bakken, C. Adamo, J. Jaramillo, R. Gomperts, R. E. Stratmann, 
 O. Yazyev, A. J. Austin, R. Cammi, C. Pomelli, J. W. Ochterski, 
 R. L. Martin, K. Morokuma, V. G. Zakrzewski, G. A. Voth, 
 P. Salvador, J. J. Dannenberg, S. Dapprich, A. D. Daniels, 
 O. Farkas, J. B. Foresman, J. V. Ortiz, J. Cioslowski, 
 and D. J. Fox, Gaussian, Inc., Wallingford CT, 2013.
 
 ******************************************
 Gaussian 09:  ES64L-G09RevD.01 24-Apr-2013
                 8-Apr-2026 
 ******************************************
 --------------------------
 #p UB3LYP/Gen Opt Pop=Full
 --------------------------
 1/14=-1,18=20,19=15,26=3,38=1/1,3;
 2/9=110,12=2,17=6,18=5,40=1/2;
 3/5=7,11=2,16=1,25=1,30=1,71=1,74=-5,116=2/1,2,3;
 4//1;
 5/5=2,38=5/2;
 6/7=3,28=1/1;
 7//1,2,3,16;
 1/14=-1,18=20,19=15,26=3/3(2);
 2/9=110/2;
 99//99;
 2/9=110/2;
 3/5=7,6=1,11=2,16=1,25=1,30=1,71=1,74=-5,82=7,116=2/1,2,3;
 4/5=5,16=3,69=1/1;
 5/5=2,38=5/2;
 7//1,2,3,16;
 1/14=-1,18=20,19=15,26=3/3(-5);
 2/9=110/2;
 6/7=3,19=2,28=1/1;
 99/9=1/99;
 Leave Link    1 at Wed Apr  8 12:53:13 2026, MaxMem=           0 cpu:         0.0
 (Enter /opt/g09/g09/l101.exe)
 --------------------------------------
 PO optymalizacja baza maug-cc-pV(Q+d)Z
 --------------------------------------
 Symbolic Z-matrix:
 Charge =  0 Multiplicity = 2
 P                     0.        0.        0. 
 O                     0.        0.        1.5 
 
 NAtoms=      2 NQM=        2 NQMF=       0 NMMI=      0 NMMIF=      0
                NMic=       0 NMicF=      0.
                    Isotopes and Nuclear Properties:
 (Nuclear quadrupole moments (NQMom) in fm**2, nuclear magnetic moments (NMagM)
  in nuclear magnetons)

  Atom         1           2
 IAtWgt=          31          16
 AtmWgt=  30.9737634  15.9949146
 NucSpn=           1           0
 AtZEff=   0.0000000   0.0000000
 NQMom=    0.0000000   0.0000000
 NMagM=    1.1316000   0.0000000
 AtZNuc=  15.0000000   8.0000000
 Leave Link  101 at Wed Apr  8 12:53:13 2026, MaxMem=    33554432 cpu:         0.1
 (Enter /opt/g09/g09/l103.exe)

 GradGradGradGradGradGradGradGradGradGradGradGradGradGradGradGradGradGrad
 Berny optimization.
 Initialization pass.
                           ----------------------------
                           !    Initial Parameters    !
                           ! (Angstroms and Degrees)  !
 --------------------------                            --------------------------
 ! Name  Definition              Value          Derivative Info.                !
 --------------------------------------------------------------------------------
 ! R1    R(1,2)                  1.5            estimate D2E/DX2                !
 --------------------------------------------------------------------------------
 Trust Radius=3.00D-01 FncErr=1.00D-07 GrdErr=1.00D-06
 Number of steps in this run=     20 maximum allowed number of steps=    100.
 GradGradGradGradGradGradGradGradGradGradGradGradGradGradGradGradGradGrad

 Leave Link  103 at Wed Apr  8 12:53:13 2026, MaxMem=    33554432 cpu:         0.0
 (Enter /opt/g09/g09/l202.exe)
                          Input orientation:                          
 ---------------------------------------------------------------------
 Center     Atomic      Atomic             Coordinates (Angstroms)
 Number     Number       Type             X           Y           Z
 ---------------------------------------------------------------------
      1         15           0        0.000000    0.000000    0.000000
      2          8           0        0.000000    0.000000    1.500000
 ---------------------------------------------------------------------
 Stoichiometry    OP(2)
 Framework group  C*V[C*(OP)]
 Deg. of freedom     1
 Full point group                 C*V     NOp   4
 Largest Abelian subgroup         C2V     NOp   4
 Largest concise Abelian subgroup C1      NOp   1
                         Standard orientation:                         
 ---------------------------------------------------------------------
 Center     Atomic      Atomic             Coordinates (Angstroms)
 Number     Number       Type             X           Y           Z
 ---------------------------------------------------------------------
      1         15           0        0.000000    0.000000    0.521739
      2          8           0        0.000000    0.000000   -0.978261
 ---------------------------------------------------------------------
 Rotational constants (GHZ):      0.0000000     21.2944835     21.2944835
 Leave Link  202 at Wed Apr  8 12:53:13 2026, MaxMem=    33554432 cpu:         0.0
 (Enter /opt/g09/g09/l301.exe)
 General basis read from cards:  (5D, 7F)
 Centers:       2
 S 8 1.00
     Exponent=  1.1720000000D+04 Coefficients=  7.1000000000D-04
     Exponent=  1.7590000000D+03 Coefficients=  5.4700000000D-03
     Exponent=  4.0080000000D+02 Coefficients=  2.7837000000D-02
     Exponent=  1.1370000000D+02 Coefficients=  1.0480000000D-01
     Exponent=  3.7030000000D+01 Coefficients=  2.8306200000D-01
     Exponent=  1.3270000000D+01 Coefficients=  4.4871900000D-01
     Exponent=  5.0250000000D+00 Coefficients=  2.7095200000D-01
     Exponent=  1.0130000000D+00 Coefficients=  1.5458000000D-02
 S 8 1.00
     Exponent=  1.1720000000D+04 Coefficients= -1.6000000000D-04
     Exponent=  1.7590000000D+03 Coefficients= -1.2630000000D-03
     Exponent=  4.0080000000D+02 Coefficients= -6.2670000000D-03
     Exponent=  1.1370000000D+02 Coefficients= -2.5716000000D-02
     Exponent=  3.7030000000D+01 Coefficients= -7.0924000000D-02
     Exponent=  1.3270000000D+01 Coefficients= -1.6541100000D-01
     Exponent=  5.0250000000D+00 Coefficients= -1.1695500000D-01
     Exponent=  1.0130000000D+00 Coefficients=  5.5736800000D-01
 S 1 1.00
     Exponent=  3.0230000000D-01 Coefficients=  1.0000000000D+00
 S 1 1.00
     Exponent=  7.8960000000D-02 Coefficients=  1.0000000000D+00
 P 3 1.00
     Exponent=  1.7700000000D+01 Coefficients=  4.3018000000D-02
     Exponent=  3.8540000000D+00 Coefficients=  2.2891300000D-01
     Exponent=  1.0460000000D+00 Coefficients=  5.0872800000D-01
 P 1 1.00
     Exponent=  2.7530000000D-01 Coefficients=  1.0000000000D+00
 P 1 1.00
     Exponent=  6.8560000000D-02 Coefficients=  1.0000000000D+00
 D 1 1.00
     Exponent=  1.1850000000D+00 Coefficients=  1.0000000000D+00
 ****
 Centers:       1
 S 11 1.00
     Exponent=  9.4840000000D+04 Coefficients=  2.5550900000D-04
     Exponent=  1.4220000000D+04 Coefficients=  1.9819300000D-03
     Exponent=  3.2360000000D+03 Coefficients=  1.0276000000D-02
     Exponent=  9.1710000000D+02 Coefficients=  4.1482300000D-02
     Exponent=  2.9950000000D+02 Coefficients=  1.3198400000D-01
     Exponent=  1.0810000000D+02 Coefficients=  3.0866200000D-01
     Exponent=  4.2180000000D+01 Coefficients=  4.2064700000D-01
     Exponent=  1.7280000000D+01 Coefficients=  2.2287800000D-01
     Exponent=  4.8580000000D+00 Coefficients=  1.6403500000D-02
     Exponent=  1.8180000000D+00 Coefficients= -2.5425500000D-03
     Exponent=  3.3720000000D-01 Coefficients=  7.4805000000D-04
 S 11 1.00
     Exponent=  9.4840000000D+04 Coefficients= -6.9693900000D-05
     Exponent=  1.4220000000D+04 Coefficients= -5.3526600000D-04
     Exponent=  3.2360000000D+03 Coefficients= -2.8370900000D-03
     Exponent=  9.1710000000D+02 Coefficients= -1.1398300000D-02
     Exponent=  2.9950000000D+02 Coefficients= -3.9292900000D-02
     Exponent=  1.0810000000D+02 Coefficients= -9.9636400000D-02
     Exponent=  4.2180000000D+01 Coefficients= -1.9798300000D-01
     Exponent=  1.7280000000D+01 Coefficients= -1.1486000000D-01
     Exponent=  4.8580000000D+00 Coefficients=  5.1859500000D-01
     Exponent=  1.8180000000D+00 Coefficients=  6.0184700000D-01
     Exponent=  3.3720000000D-01 Coefficients=  3.6861200000D-02
 S 11 1.00
     Exponent=  9.4840000000D+04 Coefficients=  1.9119900000D-05
     Exponent=  1.4220000000D+04 Coefficients=  1.4722300000D-04
     Exponent=  3.2360000000D+03 Coefficients=  7.7791200000D-04
     Exponent=  9.1710000000D+02 Coefficients=  3.1454600000D-03
     Exponent=  2.9950000000D+02 Coefficients=  1.0820000000D-02
     Exponent=  1.0810000000D+02 Coefficients=  2.7995700000D-02
     Exponent=  4.2180000000D+01 Coefficients=  5.6397800000D-02
     Exponent=  1.7280000000D+01 Coefficients=  3.5819000000D-02
     Exponent=  4.8580000000D+00 Coefficients= -1.9338700000D-01
     Exponent=  1.8180000000D+00 Coefficients= -3.7209700000D-01
     Exponent=  3.3720000000D-01 Coefficients=  6.2424600000D-01
 S 1 1.00
     Exponent=  1.2320000000D-01 Coefficients=  1.0000000000D+00
 S 1 1.00
     Exponent=  4.1700000000D-02 Coefficients=  1.0000000000D+00
 P 7 1.00
     Exponent=  3.7050000000D+02 Coefficients=  3.9500500000D-03
     Exponent=  8.7330000000D+01 Coefficients=  3.0249200000D-02
     Exponent=  2.7590000000D+01 Coefficients=  1.2955400000D-01
     Exponent=  1.0000000000D+01 Coefficients=  3.2759400000D-01
     Exponent=  3.8250000000D+00 Coefficients=  4.5699200000D-01
     Exponent=  1.4940000000D+00 Coefficients=  2.5308600000D-01
     Exponent=  3.9210000000D-01 Coefficients=  1.6879800000D-02
 P 7 1.00
     Exponent=  3.7050000000D+02 Coefficients= -9.5983200000D-04
     Exponent=  8.7330000000D+01 Coefficients= -7.1117700000D-03
     Exponent=  2.7590000000D+01 Coefficients= -3.2712200000D-02
     Exponent=  1.0000000000D+01 Coefficients= -7.9578400000D-02
     Exponent=  3.8250000000D+00 Coefficients= -1.3501600000D-01
     Exponent=  1.4940000000D+00 Coefficients= -9.1058500000D-03
     Exponent=  3.9210000000D-01 Coefficients=  5.3780200000D-01
 P 1 1.00
     Exponent=  1.1860000000D-01 Coefficients=  1.0000000000D+00
 P 1 1.00
     Exponent=  3.4300000000D-02 Coefficients=  1.0000000000D+00
 D 1 1.00
     Exponent=  2.5060000000D+00 Coefficients=  1.0000000000D+00
 D 1 1.00
     Exponent=  3.7400000000D-01 Coefficients=  1.0000000000D+00
 ****
 Ernie: Thresh=  0.10000D-02 Tol=  0.10000D-05 Strict=F.
 Ernie:  12 primitive shells out of 77 were deleted.
 There are    25 symmetry adapted cartesian basis functions of A1  symmetry.
 There are     3 symmetry adapted cartesian basis functions of A2  symmetry.
 There are    10 symmetry adapted cartesian basis functions of B1  symmetry.
 There are    10 symmetry adapted cartesian basis functions of B2  symmetry.
 There are    22 symmetry adapted basis functions of A1  symmetry.
 There are     3 symmetry adapted basis functions of A2  symmetry.
 There are    10 symmetry adapted basis functions of B1  symmetry.
 There are    10 symmetry adapted basis functions of B2  symmetry.
    45 basis functions,   118 primitive gaussians,    48 cartesian basis functions
    12 alpha electrons       11 beta electrons
       nuclear repulsion energy        42.3341766872 Hartrees.
 IExCor=  402 DFT=T Ex+Corr=B3LYP ExCW=0 ScaHFX=  0.200000
 ScaDFX=  0.800000  0.720000  1.000000  0.810000 ScalE2=  1.000000  1.000000
 IRadAn=      0 IRanWt=     -1 IRanGd=            0 ICorTp=0 IEmpDi=  4
 NAtoms=    2 NActive=    2 NUniq=    2 SFac= 1.00D+00 NAtFMM=   60 NAOKFM=F Big=F
 Integral buffers will be    131072 words long.
 Raffenetti 2 integral format.
 Two-electron integral symmetry is turned on.
 Leave Link  301 at Wed Apr  8 12:53:13 2026, MaxMem=    33554432 cpu:         0.0
 (Enter /opt/g09/g09/l302.exe)
 NPDir=0 NMtPBC=     1 NCelOv=     1 NCel=       1 NClECP=     1 NCelD=      1
         NCelK=      1 NCelE2=     1 NClLst=     1 CellRange=     0.0.
 One-electron integrals computed using PRISM.
 NBasis=    45 RedAO= T EigKep=  1.25D-02  NBF=    22     3    10    10
 NBsUse=    45 1.00D-06 EigRej= -1.00D+00 NBFU=    22     3    10    10
 Precomputing XC quadrature grid using
 IXCGrd= 4 IRadAn=           0 IRanWt=          -1 IRanGd=           0 AccXCQ= 0.00D+00.
 Generated NRdTot=       0 NPtTot=           0 NUsed=           0 NTot=          32
 NSgBfM=    48    48    48    48    48 MxSgAt=     2 MxSgA2=     2.
 Leave Link  302 at Wed Apr  8 12:53:13 2026, MaxMem=    33554432 cpu:         0.0
 (Enter /opt/g09/g09/l303.exe)
 DipDrv:  MaxL=1.
 Leave Link  303 at Wed Apr  8 12:53:13 2026, MaxMem=    33554432 cpu:         0.0
 (Enter /opt/g09/g09/l401.exe)
 ExpMin= 3.43D-02 ExpMax= 9.48D+04 ExpMxC= 3.24D+03 IAcc=3 IRadAn=         5 AccDes= 0.00D+00
 Harris functional with IExCor=  402 and IRadAn=       5 diagonalized for initial guess.
 HarFok:  IExCor=  402 AccDes= 0.00D+00 IRadAn=         5 IDoV= 1 UseB2=F ITyADJ=14
 ICtDFT=  3500011 ScaDFX=  1.000000  1.000000  1.000000  1.000000
 FoFCou: FMM=F IPFlag=           0 FMFlag=      100000 FMFlg1=           0
         NFxFlg=           0 DoJE=T BraDBF=F KetDBF=T FulRan=T
         wScrn=  0.000000 ICntrl=     500 IOpCl=  0 I1Cent=   200000004 NGrid=           0
         NMat0=    1 NMatS0=      1 NMatT0=    0 NMatD0=    1 NMtDS0=    0 NMtDT0=    0
 Petite list used in FoFCou.
 Harris En= -416.576141716351    
 JPrj=0 DoOrth=F DoCkMO=F.
 Initial guess orbital symmetries:
 Alpha Orbitals:
       Occupied  (SG) (SG) (SG) (SG) (PI) (PI) (SG) (SG) (PI) (PI)
                 (SG) (PI)
       Virtual   (PI) (SG) (SG) (PI) (PI) (SG) (PI) (PI) (SG) (SG)
                 (DLTA) (DLTA) (PI) (PI) (PI) (PI) (SG) (SG) (SG)
                 (PI) (PI) (SG) (SG) (DLTA) (DLTA) (PI) (PI) (SG)
                 (DLTA) (DLTA) (PI) (PI) (SG)
 Beta  Orbitals:
       Occupied  (SG) (SG) (SG) (SG) (PI) (PI) (SG) (SG) (PI) (PI)
                 (SG)
       Virtual   (PI) (PI) (SG) (SG) (PI) (PI) (SG) (PI) (PI) (SG)
                 (SG) (DLTA) (DLTA) (PI) (PI) (PI) (PI) (SG) (SG)
                 (SG) (PI) (PI) (SG) (SG) (DLTA) (DLTA) (PI) (PI)
                 (SG) (DLTA) (DLTA) (PI) (PI) (SG)
 Initial guess <Sx>= 0.0000 <Sy>= 0.0000 <Sz>= 0.5000 <S**2>= 0.7500 S= 0.5000
 Leave Link  401 at Wed Apr  8 12:53:13 2026, MaxMem=    33554432 cpu:         0.1
 (Enter /opt/g09/g09/l502.exe)
 UHF open shell SCF:
 Using DIIS extrapolation, IDIIS=  1040.
 Integral symmetry usage will be decided dynamically.
 Keep R1 and R2 ints in memory in symmetry-blocked form, NReq=1434786.
 IVT=       26175 IEndB=       26175 NGot=    33554432 MDV=    33234861
 LenX=    33234861 LenY=    33232116
 Requested convergence on RMS density matrix=1.00D-08 within 128 cycles.
 Requested convergence on MAX density matrix=1.00D-06.
 Requested convergence on             energy=1.00D-06.
 No special actions if energy rises.
 FoFCou: FMM=F IPFlag=           0 FMFlag=           0 FMFlg1=           0
         NFxFlg=           0 DoJE=F BraDBF=F KetDBF=F FulRan=T
         wScrn=  0.000000 ICntrl=     600 IOpCl=  0 I1Cent=           0 NGrid=           0
         NMat0=    1 NMatS0=   1035 NMatT0=    0 NMatD0=    1 NMtDS0=    0 NMtDT0=    0
 Petite list used in FoFCou.

 Cycle   1  Pass 1  IDiag  1:
 E= -416.397473754439    
 DIIS: error= 5.66D-02 at cycle   1 NSaved=   1.
 NSaved= 1 IEnMin= 1 EnMin= -416.397473754439     IErMin= 1 ErrMin= 5.66D-02
 ErrMax= 5.66D-02  0.00D+00 EMaxC= 1.00D-01 BMatC= 7.58D-01 BMatP= 7.58D-01
 IDIUse=3 WtCom= 4.34D-01 WtEn= 5.66D-01
 Coeff-Com:  0.100D+01
 Coeff-En:   0.100D+01
 Coeff:      0.100D+01
 Gap=    -0.023 Goal=   None    Shift=    0.000
 Gap=     0.030 Goal=   None    Shift=    0.000
 GapD=   -0.023 DampG=0.250 DampE=0.500 DampFc=0.2500 IDamp=-1.
 Damping current iteration by 2.50D-01
 RMSDP=2.91D-02 MaxDP=3.53D-01              OVMax= 7.23D-01

 Cycle   2  Pass 1  IDiag  1:
 E= -416.420367829888     Delta-E=       -0.022894075449 Rises=F Damp=T
 DIIS: error= 9.64D-03 at cycle   2 NSaved=   2.
 NSaved= 2 IEnMin= 2 EnMin= -416.420367829888     IErMin= 2 ErrMin= 9.64D-03
 ErrMax= 9.64D-03  0.00D+00 EMaxC= 1.00D-01 BMatC= 2.26D-02 BMatP= 7.58D-01
 IDIUse=3 WtCom= 9.04D-01 WtEn= 9.64D-02
 Coeff-Com:  0.387D-01 0.961D+00
 Coeff-En:   0.428D+00 0.572D+00
 Coeff:      0.763D-01 0.924D+00
 Gap=     0.071 Goal=   None    Shift=    0.000
 Gap=     0.105 Goal=   None    Shift=    0.000
 RMSDP=4.42D-03 MaxDP=4.00D-02 DE=-2.29D-02 OVMax= 6.07D-01

 Cycle   3  Pass 1  IDiag  1:
 E= -416.563962189767     Delta-E=       -0.143594359879 Rises=F Damp=F
 DIIS: error= 1.15D-02 at cycle   3 NSaved=   3.
 NSaved= 3 IEnMin= 3 EnMin= -416.563962189767     IErMin= 2 ErrMin= 9.64D-03
 ErrMax= 1.15D-02  0.00D+00 EMaxC= 1.00D-01 BMatC= 1.99D-02 BMatP= 2.26D-02
 IDIUse=3 WtCom= 8.85D-01 WtEn= 1.15D-01
 Coeff-Com: -0.932D-01 0.346D+00 0.747D+00
 Coeff-En:   0.000D+00 0.000D+00 0.100D+01
 Coeff:     -0.825D-01 0.307D+00 0.776D+00
 Gap=     0.067 Goal=   None    Shift=    0.000
 Gap=     0.236 Goal=   None    Shift=    0.000
 RMSDP=1.48D-03 MaxDP=1.50D-02 DE=-1.44D-01 OVMax= 3.81D-02

 Cycle   4  Pass 1  IDiag  1:
 E= -416.569826164112     Delta-E=       -0.005863974346 Rises=F Damp=F
 DIIS: error= 8.52D-04 at cycle   4 NSaved=   4.
 NSaved= 4 IEnMin= 4 EnMin= -416.569826164112     IErMin= 4 ErrMin= 8.52D-04
 ErrMax= 8.52D-04  0.00D+00 EMaxC= 1.00D-01 BMatC= 1.88D-04 BMatP= 1.99D-02
 IDIUse=3 WtCom= 9.91D-01 WtEn= 8.52D-03
 Coeff-Com: -0.489D-02-0.264D-01 0.561D-01 0.975D+00
 Coeff-En:   0.000D+00 0.000D+00 0.000D+00 0.100D+01
 Coeff:     -0.485D-02-0.262D-01 0.556D-01 0.975D+00
 Gap=     0.071 Goal=   None    Shift=    0.000
 Gap=     0.240 Goal=   None    Shift=    0.000
 RMSDP=2.58D-04 MaxDP=3.39D-03 DE=-5.86D-03 OVMax= 6.40D-03

 Cycle   5  Pass 1  IDiag  1:
 E= -416.569807888837     Delta-E=        0.000018275275 Rises=F Damp=F
 DIIS: error= 1.25D-03 at cycle   5 NSaved=   5.
 NSaved= 5 IEnMin= 4 EnMin= -416.569826164112     IErMin= 4 ErrMin= 8.52D-04
 ErrMax= 1.25D-03  0.00D+00 EMaxC= 1.00D-01 BMatC= 3.11D-04 BMatP= 1.88D-04
 IDIUse=3 WtCom= 2.20D-01 WtEn= 7.80D-01
 Coeff-Com:  0.147D-01-0.290D-01 0.101D-01 0.179D+00 0.825D+00
 Coeff-En:   0.000D+00 0.000D+00 0.000D+00 0.688D+00 0.312D+00
 Coeff:      0.323D-02-0.639D-02 0.223D-02 0.576D+00 0.425D+00
 Gap=     0.071 Goal=   None    Shift=    0.000
 Gap=     0.242 Goal=   None    Shift=    0.000
 RMSDP=2.37D-04 MaxDP=3.51D-03 DE= 1.83D-05 OVMax= 7.01D-03

 Cycle   6  Pass 1  IDiag  1:
 E= -416.569847916015     Delta-E=       -0.000040027177 Rises=F Damp=F
 DIIS: error= 9.26D-04 at cycle   6 NSaved=   6.
 NSaved= 6 IEnMin= 6 EnMin= -416.569847916015     IErMin= 4 ErrMin= 8.52D-04
 ErrMax= 9.26D-04  0.00D+00 EMaxC= 1.00D-01 BMatC= 1.75D-04 BMatP= 1.88D-04
 IDIUse=3 WtCom= 9.91D-01 WtEn= 9.26D-03
 Coeff-Com: -0.691D-02 0.305D-02-0.138D-01 0.798D-01 0.136D+00 0.801D+00
 Coeff-En:   0.000D+00 0.000D+00 0.000D+00 0.000D+00 0.371D+00 0.629D+00
 Coeff:     -0.685D-02 0.302D-02-0.136D-01 0.790D-01 0.139D+00 0.800D+00
 Gap=     0.071 Goal=   None    Shift=    0.000
 Gap=     0.241 Goal=   None    Shift=    0.000
 RMSDP=7.07D-05 MaxDP=1.66D-03 DE=-4.00D-05 OVMax= 2.39D-03

 Cycle   7  Pass 1  IDiag  1:
 E= -416.569883577622     Delta-E=       -0.000035661607 Rises=F Damp=F
 DIIS: error= 1.67D-04 at cycle   7 NSaved=   7.
 NSaved= 7 IEnMin= 7 EnMin= -416.569883577622     IErMin= 7 ErrMin= 1.67D-04
 ErrMax= 1.67D-04  0.00D+00 EMaxC= 1.00D-01 BMatC= 4.25D-06 BMatP= 1.75D-04
 IDIUse=3 WtCom= 9.98D-01 WtEn= 1.67D-03
 Coeff-Com: -0.277D-03-0.777D-03-0.687D-02-0.193D-01 0.809D-01 0.581D-01
 Coeff-Com:  0.888D+00
 Coeff-En:   0.000D+00 0.000D+00 0.000D+00 0.000D+00 0.000D+00 0.000D+00
 Coeff-En:   0.100D+01
 Coeff:     -0.276D-03-0.776D-03-0.686D-02-0.193D-01 0.808D-01 0.580D-01
 Coeff:      0.888D+00
 Gap=     0.071 Goal=   None    Shift=    0.000
 Gap=     0.241 Goal=   None    Shift=    0.000
 RMSDP=2.61D-05 MaxDP=3.97D-04 DE=-3.57D-05 OVMax= 7.69D-04

 Cycle   8  Pass 1  IDiag  1:
 E= -416.569884977424     Delta-E=       -0.000001399803 Rises=F Damp=F
 DIIS: error= 2.25D-05 at cycle   8 NSaved=   8.
 NSaved= 8 IEnMin= 8 EnMin= -416.569884977424     IErMin= 8 ErrMin= 2.25D-05
 ErrMax= 2.25D-05  0.00D+00 EMaxC= 1.00D-01 BMatC= 9.05D-08 BMatP= 4.25D-06
 IDIUse=1 WtCom= 1.00D+00 WtEn= 0.00D+00
 Coeff-Com:  0.783D-04 0.635D-03 0.341D-03-0.851D-02-0.385D-01-0.617D-01
 Coeff-Com: -0.139D-02 0.111D+01
 Coeff:      0.783D-04 0.635D-03 0.341D-03-0.851D-02-0.385D-01-0.617D-01
 Coeff:     -0.139D-02 0.111D+01
 Gap=     0.071 Goal=   None    Shift=    0.000
 Gap=     0.241 Goal=   None    Shift=    0.000
 RMSDP=9.21D-06 MaxDP=1.88D-04 DE=-1.40D-06 OVMax= 3.69D-04

 Cycle   9  Pass 1  IDiag  1:
 E= -416.569885090417     Delta-E=       -0.000000112992 Rises=F Damp=F
 DIIS: error= 1.39D-05 at cycle   9 NSaved=   9.
 NSaved= 9 IEnMin= 9 EnMin= -416.569885090417     IErMin= 9 ErrMin= 1.39D-05
 ErrMax= 1.39D-05  0.00D+00 EMaxC= 1.00D-01 BMatC= 1.60D-08 BMatP= 9.05D-08
 IDIUse=1 WtCom= 1.00D+00 WtEn= 0.00D+00
 Coeff-Com: -0.153D-04-0.165D-03 0.667D-04 0.448D-02 0.934D-02 0.227D-01
 Coeff-Com: -0.104D+00-0.495D+00 0.156D+01
 Coeff:     -0.153D-04-0.165D-03 0.667D-04 0.448D-02 0.934D-02 0.227D-01
 Coeff:     -0.104D+00-0.495D+00 0.156D+01
 Gap=     0.071 Goal=   None    Shift=    0.000
 Gap=     0.241 Goal=   None    Shift=    0.000
 RMSDP=6.30D-06 MaxDP=1.43D-04 DE=-1.13D-07 OVMax= 2.65D-04

 Cycle  10  Pass 1  IDiag  1:
 E= -416.569885125585     Delta-E=       -0.000000035169 Rises=F Damp=F
 DIIS: error= 5.97D-06 at cycle  10 NSaved=  10.
 NSaved=10 IEnMin=10 EnMin= -416.569885125585     IErMin=10 ErrMin= 5.97D-06
 ErrMax= 5.97D-06  0.00D+00 EMaxC= 1.00D-01 BMatC= 2.16D-09 BMatP= 1.60D-08
 IDIUse=1 WtCom= 1.00D+00 WtEn= 0.00D+00
 Coeff-Com: -0.234D-04 0.242D-04 0.498D-04-0.527D-03-0.310D-03 0.112D-02
 Coeff-Com:  0.278D-01 0.776D-02-0.472D+00 0.144D+01
 Coeff:     -0.234D-04 0.242D-04 0.498D-04-0.527D-03-0.310D-03 0.112D-02
 Coeff:      0.278D-01 0.776D-02-0.472D+00 0.144D+01
 Gap=     0.071 Goal=   None    Shift=    0.000
 Gap=     0.241 Goal=   None    Shift=    0.000
 RMSDP=2.62D-06 MaxDP=6.58D-05 DE=-3.52D-08 OVMax= 1.31D-04

 Cycle  11  Pass 1  IDiag  1:
 E= -416.569885130392     Delta-E=       -0.000000004807 Rises=F Damp=F
 DIIS: error= 2.30D-06 at cycle  11 NSaved=  11.
 NSaved=11 IEnMin=11 EnMin= -416.569885130392     IErMin=11 ErrMin= 2.30D-06
 ErrMax= 2.30D-06  0.00D+00 EMaxC= 1.00D-01 BMatC= 4.06D-10 BMatP= 2.16D-09
 IDIUse=1 WtCom= 1.00D+00 WtEn= 0.00D+00
 Coeff-Com: -0.121D-05 0.152D-04-0.406D-04-0.567D-03-0.437D-03-0.324D-02
 Coeff-Com:  0.141D-01 0.634D-01-0.192D+00-0.106D+00 0.122D+01
 Coeff:     -0.121D-05 0.152D-04-0.406D-04-0.567D-03-0.437D-03-0.324D-02
 Coeff:      0.141D-01 0.634D-01-0.192D+00-0.106D+00 0.122D+01
 Gap=     0.071 Goal=   None    Shift=    0.000
 Gap=     0.241 Goal=   None    Shift=    0.000
 RMSDP=7.98D-07 MaxDP=1.94D-05 DE=-4.81D-09 OVMax= 3.89D-05

 Cycle  12  Pass 1  IDiag  1:
 E= -416.569885130789     Delta-E=       -0.000000000396 Rises=F Damp=F
 DIIS: error= 3.68D-07 at cycle  12 NSaved=  12.
 NSaved=12 IEnMin=12 EnMin= -416.569885130789     IErMin=12 ErrMin= 3.68D-07
 ErrMax= 3.68D-07  0.00D+00 EMaxC= 1.00D-01 BMatC= 1.30D-11 BMatP= 4.06D-10
 IDIUse=1 WtCom= 1.00D+00 WtEn= 0.00D+00
 Coeff-Com: -0.594D-06 0.917D-06-0.841D-05 0.553D-04 0.101D-03 0.180D-03
 Coeff-Com: -0.175D-02-0.508D-02 0.348D-01-0.475D-01-0.126D+00 0.115D+01
 Coeff:     -0.594D-06 0.917D-06-0.841D-05 0.553D-04 0.101D-03 0.180D-03
 Coeff:     -0.175D-02-0.508D-02 0.348D-01-0.475D-01-0.126D+00 0.115D+01
 Gap=     0.071 Goal=   None    Shift=    0.000
 Gap=     0.241 Goal=   None    Shift=    0.000
 RMSDP=7.98D-08 MaxDP=1.83D-06 DE=-3.96D-10 OVMax= 3.72D-06

 Cycle  13  Pass 1  IDiag  1:
 E= -416.569885130795     Delta-E=       -0.000000000006 Rises=F Damp=F
 DIIS: error= 4.57D-08 at cycle  13 NSaved=  13.
 NSaved=13 IEnMin=13 EnMin= -416.569885130795     IErMin=13 ErrMin= 4.57D-08
 ErrMax= 4.57D-08  0.00D+00 EMaxC= 1.00D-01 BMatC= 2.69D-13 BMatP= 1.30D-11
 IDIUse=1 WtCom= 1.00D+00 WtEn= 0.00D+00
 Coeff-Com: -0.184D-06 0.179D-07 0.247D-05-0.127D-05-0.123D-04 0.235D-04
 Coeff-Com:  0.126D-03 0.207D-03-0.524D-02 0.150D-01 0.963D-02-0.314D+00
 Coeff-Com:  0.129D+01
 Coeff:     -0.184D-06 0.179D-07 0.247D-05-0.127D-05-0.123D-04 0.235D-04
 Coeff:      0.126D-03 0.207D-03-0.524D-02 0.150D-01 0.963D-02-0.314D+00
 Coeff:      0.129D+01
 Gap=     0.071 Goal=   None    Shift=    0.000
 Gap=     0.241 Goal=   None    Shift=    0.000
 RMSDP=1.22D-08 MaxDP=2.32D-07 DE=-6.08D-12 OVMax= 4.73D-07

 Cycle  14  Pass 1  IDiag  1:
 E= -416.569885130796     Delta-E=       -0.000000000001 Rises=F Damp=F
 DIIS: error= 7.74D-09 at cycle  14 NSaved=  14.
 NSaved=14 IEnMin=14 EnMin= -416.569885130796     IErMin=14 ErrMin= 7.74D-09
 ErrMax= 7.74D-09  0.00D+00 EMaxC= 1.00D-01 BMatC= 7.42D-15 BMatP= 2.69D-13
 IDIUse=1 WtCom= 1.00D+00 WtEn= 0.00D+00
 Coeff-Com:  0.223D-09 0.212D-07-0.173D-06-0.246D-05 0.477D-05-0.120D-04
 Coeff-Com:  0.423D-04 0.520D-04 0.133D-03-0.197D-02 0.171D-02 0.385D-01
 Coeff-Com: -0.281D+00 0.124D+01
 Coeff:      0.223D-09 0.212D-07-0.173D-06-0.246D-05 0.477D-05-0.120D-04
 Coeff:      0.423D-04 0.520D-04 0.133D-03-0.197D-02 0.171D-02 0.385D-01
 Coeff:     -0.281D+00 0.124D+01
 Gap=     0.071 Goal=   None    Shift=    0.000
 Gap=     0.241 Goal=   None    Shift=    0.000
 RMSDP=1.67D-09 MaxDP=2.68D-08 DE=-7.96D-13 OVMax= 4.70D-08

 SCF Done:  E(UB3LYP) =  -416.569885131     A.U. after   14 cycles
            NFock= 14  Conv=0.17D-08     -V/T= 2.0031
 <Sx>= 0.0000 <Sy>= 0.0000 <Sz>= 0.5000 <S**2>= 0.7534 S= 0.5017
 <L.S>= 0.000000000000E+00
 KE= 4.152647850717D+02 PE=-1.074327887745D+03 EE= 2.001590408553D+02
 Annihilation of the first spin contaminant:
 S**2 before annihilation     0.7534,   after     0.7500
 Leave Link  502 at Wed Apr  8 12:53:13 2026, MaxMem=    33554432 cpu:         0.3
 (Enter /opt/g09/g09/l601.exe)
 Copying SCF densities to generalized density rwf, IOpCl= 1 IROHF=0.

 **********************************************************************

            Population analysis using the SCF density.

 **********************************************************************

 Orbital symmetries:
 Alpha Orbitals:
       Occupied  (SG) (SG) (SG) (PI) (PI) (SG) (SG) (SG) (PI) (SG)
                 (PI) (PI)
       Virtual   (PI) (SG) (SG) (PI) (PI) (SG) (SG) (PI) (PI) (SG)
                 (DLTA) (DLTA) (PI) (PI) (PI) (SG) (PI) (SG) (SG)
                 (PI) (PI) (SG) (SG) (DLTA) (DLTA) (PI) (PI) (SG)
                 (DLTA) (DLTA) (PI) (PI) (SG)
 Beta  Orbitals:
       Occupied  (SG) (SG) (SG) (PI) (SG) (PI) (SG) (SG) (PI) (SG)
                 (PI)
       Virtual   (PI) (PI) (SG) (SG) (PI) (PI) (SG) (SG) (PI) (PI)
                 (SG) (?A) (?A) (PI) (PI) (PI) (?A) (PI) (SG) (SG)
                 (PI) (PI) (SG) (SG) (DLTA) (DLTA) (PI) (PI) (SG)
                 (?B) (?B) (PI) (PI) (?B)
 Unable to determine electronic state:  partially filled degenerate orbitals.
 Alpha  occ. eigenvalues --  -77.16766 -19.19249  -6.63346  -4.79744  -4.79422
 Alpha  occ. eigenvalues --   -4.79259  -1.03440  -0.57037  -0.41232  -0.40067
 Alpha  occ. eigenvalues --   -0.39788  -0.20865
 Alpha virt. eigenvalues --   -0.13788  -0.00910   0.01762   0.04567   0.04913
 Alpha virt. eigenvalues --    0.10793   0.15725   0.16516   0.16549   0.28108
 Alpha virt. eigenvalues --    0.37621   0.37888   0.45213   0.45434   0.51318
 Alpha virt. eigenvalues --    0.51628   0.51800   0.68706   0.89046   1.12959
 Alpha virt. eigenvalues --    1.13281   1.14957   1.78913   2.55199   2.55258
 Alpha virt. eigenvalues --    2.68239   2.68326   3.21466   3.70972   3.70999
 Alpha virt. eigenvalues --    3.79030   3.79925   3.91902
  Beta  occ. eigenvalues --  -77.16455 -19.18543  -6.63013  -4.79561  -4.79084
  Beta  occ. eigenvalues --   -4.78314  -1.02013  -0.54367  -0.39219  -0.38437
  Beta  occ. eigenvalues --   -0.36938
  Beta virt. eigenvalues --   -0.12824  -0.09784  -0.00472   0.02033   0.04918
  Beta virt. eigenvalues --    0.05407   0.11278   0.15963   0.16512   0.17025
  Beta virt. eigenvalues --    0.28224   0.41260   0.41301   0.45765   0.48056
  Beta virt. eigenvalues --    0.52214   0.52385   0.54670   0.69506   0.90231
  Beta virt. eigenvalues --    1.13598   1.15111   1.15386   1.79676   2.57217
  Beta virt. eigenvalues --    2.57220   2.68540   2.70330   3.22496   3.71487
  Beta virt. eigenvalues --    3.71517   3.79052   3.80562   3.92171
     Alpha Molecular Orbital Coefficients:
                           1         2         3         4         5
                           O         O         O         O         O
     Eigenvalues --   -77.16766 -19.19249  -6.63346  -4.79744  -4.79422
   1 1   P  1S          1.00098   0.00001  -0.26883   0.00000   0.00000
   2        2S         -0.00365   0.00014   1.03430   0.00000   0.00000
   3        3S          0.00021   0.00050   0.05630   0.00000   0.00000
   4        4S         -0.00064   0.00171  -0.03769   0.00000   0.00000
   5        5S         -0.00005  -0.00260   0.00282   0.00000   0.00000
   6        6PX         0.00000   0.00000   0.00000   0.99177   0.00000
   7        6PY         0.00000   0.00000   0.00000   0.00000   0.99205
   8        6PZ        -0.00006   0.00000  -0.00508   0.00000   0.00000
   9        7PX         0.00000   0.00000   0.00000   0.02708   0.00000
  10        7PY         0.00000   0.00000   0.00000   0.00000   0.02608
  11        7PZ         0.00007  -0.00121  -0.00343   0.00000   0.00000
  12        8PX         0.00000   0.00000   0.00000  -0.00682   0.00000
  13        8PY         0.00000   0.00000   0.00000   0.00000  -0.00625
  14        8PZ         0.00025  -0.00147   0.00438   0.00000   0.00000
  15        9PX         0.00000   0.00000   0.00000   0.00163   0.00000
  16        9PY         0.00000   0.00000   0.00000   0.00000   0.00148
  17        9PZ        -0.00001   0.00148   0.00038   0.00000   0.00000
  18       10D 0        0.00001   0.00006  -0.00028   0.00000   0.00000
  19       10D+1        0.00000   0.00000   0.00000  -0.00071   0.00000
  20       10D-1        0.00000   0.00000   0.00000   0.00000  -0.00083
  21       10D+2        0.00000   0.00000   0.00063   0.00000   0.00000
  22       10D-2        0.00000   0.00000   0.00000   0.00000   0.00000
  23       11D 0       -0.00010   0.00069   0.00154   0.00000   0.00000
  24       11D+1        0.00000   0.00000   0.00000  -0.00009   0.00000
  25       11D-1        0.00000   0.00000   0.00000   0.00000   0.00004
  26       11D+2        0.00000   0.00001  -0.00010   0.00000   0.00000
  27       11D-2        0.00000   0.00000   0.00000   0.00000   0.00000
  28 2   O  1S         -0.00001   0.99653  -0.00012   0.00000   0.00000
  29        2S         -0.00005   0.02291   0.00098   0.00000   0.00000
  30        3S          0.00020  -0.01261  -0.00344   0.00000   0.00000
  31        4S          0.00039   0.00515   0.01240   0.00000   0.00000
  32        5PX         0.00000   0.00000   0.00000   0.00017   0.00000
  33        5PY         0.00000   0.00000   0.00000   0.00000   0.00022
  34        5PZ         0.00001   0.00112  -0.00036   0.00000   0.00000
  35        6PX         0.00000   0.00000   0.00000  -0.00031   0.00000
  36        6PY         0.00000   0.00000   0.00000   0.00000  -0.00024
  37        6PZ         0.00015  -0.00230  -0.00296   0.00000   0.00000
  38        7PX         0.00000   0.00000   0.00000   0.00081   0.00000
  39        7PY         0.00000   0.00000   0.00000   0.00000   0.00073
  40        7PZ         0.00018   0.00067   0.00753   0.00000   0.00000
  41        8D 0        0.00004  -0.00029  -0.00075   0.00000   0.00000
  42        8D+1        0.00000   0.00000   0.00000  -0.00007   0.00000
  43        8D-1        0.00000   0.00000   0.00000   0.00000  -0.00002
  44        8D+2        0.00000  -0.00008   0.00001   0.00000   0.00000
  45        8D-2        0.00000   0.00000   0.00000   0.00000   0.00000
                           6         7         8         9        10
                           O         O         O         O         O
     Eigenvalues --    -4.79259  -1.03440  -0.57037  -0.41232  -0.40067
   1 1   P  1S         -0.00156   0.02902   0.06853   0.00000  -0.02204
   2        2S          0.00592  -0.10772  -0.25036   0.00000   0.08807
   3        3S         -0.00089   0.18668   0.49669   0.00000  -0.14961
   4        4S         -0.00054   0.07378   0.45729   0.00000  -0.24039
   5        5S          0.00245   0.01038   0.03571   0.00000  -0.01111
   6        6PX         0.00000   0.00000   0.00000   0.00000   0.00000
   7        6PY         0.00000   0.00000   0.00000  -0.13252   0.00000
   8        6PZ         0.99142   0.08457  -0.01888   0.00000   0.17580
   9        7PX         0.00000   0.00000   0.00000   0.00000   0.00000
  10        7PY         0.00000   0.00000   0.00000   0.29734   0.00000
  11        7PZ         0.02871  -0.14183   0.03473   0.00000  -0.39701
  12        8PX         0.00000   0.00000   0.00000   0.00000   0.00000
  13        8PY         0.00000   0.00000   0.00000   0.17917   0.00000
  14        8PZ        -0.00594  -0.01528   0.02393   0.00000  -0.20611
  15        9PX         0.00000   0.00000   0.00000   0.00000   0.00000
  16        9PY         0.00000   0.00000   0.00000  -0.00370   0.00000
  17        9PZ         0.00113  -0.00691  -0.01258   0.00000  -0.01405
  18       10D 0       -0.00084   0.01464   0.00008   0.00000   0.01885
  19       10D+1        0.00000   0.00000   0.00000   0.00000   0.00000
  20       10D-1        0.00000   0.00000   0.00000  -0.01386   0.00000
  21       10D+2        0.00003   0.00003  -0.00038   0.00000   0.00053
  22       10D-2        0.00000   0.00000   0.00000   0.00000   0.00000
  23       11D 0       -0.00207   0.05486  -0.00452   0.00000   0.08864
  24       11D+1        0.00000   0.00000   0.00000   0.00000   0.00000
  25       11D-1        0.00000   0.00000   0.00000  -0.07320   0.00000
  26       11D+2       -0.00010   0.00041  -0.00698   0.00000   0.00737
  27       11D-2        0.00000   0.00000   0.00000   0.00000   0.00000
  28 2   O  1S          0.00087  -0.20527   0.09324   0.00000   0.03604
  29        2S         -0.00154   0.44052  -0.20585   0.00000  -0.07237
  30        3S          0.00320   0.42654  -0.31175   0.00000  -0.17463
  31        4S         -0.00341  -0.01404  -0.12238   0.00000  -0.14572
  32        5PX         0.00000   0.00000   0.00000   0.00000   0.00000
  33        5PY         0.00000   0.00000   0.00000   0.55184   0.00000
  34        5PZ        -0.00150   0.13629   0.25958   0.00000   0.49380
  35        6PX         0.00000   0.00000   0.00000   0.00000   0.00000
  36        6PY         0.00000   0.00000   0.00000   0.33512   0.00000
  37        6PZ         0.00299   0.04086   0.10369   0.00000   0.23856
  38        7PX         0.00000   0.00000   0.00000   0.00000   0.00000
  39        7PY         0.00000   0.00000   0.00000   0.04483   0.00000
  40        7PZ        -0.00200  -0.00885  -0.01073   0.00000   0.01321
  41        8D 0       -0.00082   0.01401   0.01221   0.00000   0.01689
  42        8D+1        0.00000   0.00000   0.00000   0.00000   0.00000
  43        8D-1        0.00000   0.00000   0.00000   0.02290   0.00000
  44        8D+2        0.00000  -0.00030   0.00078   0.00000   0.00038
  45        8D-2        0.00000   0.00000   0.00000   0.00000   0.00000
                          11        12        13        14        15
                           O         O         V         V         V
     Eigenvalues --    -0.39788  -0.20865  -0.13788  -0.00910   0.01762
   1 1   P  1S          0.00000   0.00000   0.00000  -0.00832  -0.02400
   2        2S          0.00000   0.00000   0.00000   0.05220   0.07996
   3        3S          0.00000   0.00000   0.00000  -0.02922  -0.20666
   4        4S          0.00000   0.00000   0.00000  -0.40385  -0.45735
   5        5S          0.00000   0.00000   0.00000  -0.83142   1.93663
   6        6PX        -0.13430   0.00000  -0.20335   0.00000   0.00000
   7        6PY         0.00000  -0.21294   0.00000   0.00000   0.00000
   8        6PZ         0.00000   0.00000   0.00000  -0.08203   0.04055
   9        7PX         0.29906   0.00000   0.47471   0.00000   0.00000
  10        7PY         0.00000   0.50834   0.00000   0.00000   0.00000
  11        7PZ         0.00000   0.00000   0.00000   0.19185  -0.08235
  12        8PX         0.18713   0.00000   0.56156   0.00000   0.00000
  13        8PY         0.00000   0.54837   0.00000   0.00000   0.00000
  14        8PZ         0.00000   0.00000   0.00000   0.64372  -0.43038
  15        9PX        -0.00714   0.00000   0.19061   0.00000   0.00000
  16        9PY         0.00000   0.13879   0.00000   0.00000   0.00000
  17        9PZ         0.00000   0.00000   0.00000   0.90445   0.29365
  18       10D 0        0.00000   0.00000   0.00000   0.03464   0.00105
  19       10D+1       -0.01529   0.00000   0.01599   0.00000   0.00000
  20       10D-1        0.00000   0.01642   0.00000   0.00000   0.00000
  21       10D+2        0.00000   0.00000   0.00000  -0.00013   0.00005
  22       10D-2        0.00000   0.00000   0.00000   0.00000   0.00000
  23       11D 0        0.00000   0.00000   0.00000   0.16710   0.01581
  24       11D+1       -0.08743   0.00000   0.09482   0.00000   0.00000
  25       11D-1        0.00000   0.10137   0.00000   0.00000   0.00000
  26       11D+2        0.00000   0.00000   0.00000  -0.00031   0.00151
  27       11D-2        0.00000   0.00000   0.00000   0.00000   0.00000
  28 2   O  1S          0.00000   0.00000   0.00000  -0.05241   0.00762
  29        2S          0.00000   0.00000   0.00000   0.11647  -0.02330
  30        3S          0.00000   0.00000   0.00000   0.34757  -0.04132
  31        4S          0.00000   0.00000   0.00000   0.96874  -0.86403
  32        5PX         0.53283   0.00000  -0.35584   0.00000   0.00000
  33        5PY         0.00000  -0.35859   0.00000   0.00000   0.00000
  34        5PZ         0.00000   0.00000   0.00000   0.14884   0.06920
  35        6PX         0.33605   0.00000  -0.28548   0.00000   0.00000
  36        6PY         0.00000  -0.27669   0.00000   0.00000   0.00000
  37        6PZ         0.00000   0.00000   0.00000   0.19639   0.02599
  38        7PX         0.05379   0.00000  -0.19390   0.00000   0.00000
  39        7PY         0.00000  -0.16461   0.00000   0.00000   0.00000
  40        7PZ         0.00000   0.00000   0.00000   0.10270  -0.39125
  41        8D 0        0.00000   0.00000   0.00000   0.00885  -0.00298
  42        8D+1        0.02426   0.00000  -0.00103   0.00000   0.00000
  43        8D-1        0.00000  -0.00083   0.00000   0.00000   0.00000
  44        8D+2        0.00000   0.00000   0.00000  -0.00035   0.00013
  45        8D-2        0.00000   0.00000   0.00000   0.00000   0.00000
                          16        17        18        19        20
                           V         V         V         V         V
     Eigenvalues --     0.04567   0.04913   0.10793   0.15725   0.16516
   1 1   P  1S          0.00000   0.00000   0.00963  -0.01780   0.00000
   2        2S          0.00000   0.00000  -0.03161   0.12265   0.00000
   3        3S          0.00000   0.00000   0.08809  -0.04688   0.00000
   4        4S          0.00000   0.00000  -0.14901  -1.83604   0.00000
   5        5S          0.00000   0.00000  -0.86499   0.17265   0.00000
   6        6PX         0.00000   0.10005   0.00000   0.00000  -0.00563
   7        6PY         0.09239   0.00000   0.00000   0.00000   0.00000
   8        6PZ         0.00000   0.00000   0.09323  -0.06962   0.00000
   9        7PX         0.00000  -0.24640   0.00000   0.00000   0.03763
  10        7PY        -0.23173   0.00000   0.00000   0.00000   0.00000
  11        7PZ         0.00000   0.00000  -0.23355   0.15958   0.00000
  12        8PX         0.00000  -0.45181   0.00000   0.00000  -0.27749
  13        8PY        -0.41413   0.00000   0.00000   0.00000   0.00000
  14        8PZ         0.00000   0.00000  -0.59966   0.90959   0.00000
  15        9PX         0.00000   1.26427   0.00000   0.00000  -0.79892
  16        9PY         1.29014   0.00000   0.00000   0.00000   0.00000
  17        9PZ         0.00000   0.00000   0.92328  -1.02554   0.00000
  18       10D 0        0.00000   0.00000  -0.04267   0.01588   0.00000
  19       10D+1        0.00000   0.00036   0.00000   0.00000  -0.00365
  20       10D-1        0.00049   0.00000   0.00000   0.00000   0.00000
  21       10D+2        0.00000   0.00000   0.00014  -0.00035   0.00000
  22       10D-2        0.00000   0.00000   0.00000   0.00000   0.00000
  23       11D 0        0.00000   0.00000  -0.21723   0.05741   0.00000
  24       11D+1        0.00000   0.00914   0.00000   0.00000  -0.03542
  25       11D-1        0.00861   0.00000   0.00000   0.00000   0.00000
  26       11D+2        0.00000   0.00000   0.00005  -0.00189   0.00000
  27       11D-2        0.00000   0.00000   0.00000   0.00000   0.00000
  28 2   O  1S          0.00000   0.00000   0.02411  -0.04875   0.00000
  29        2S          0.00000   0.00000  -0.00034   0.08058   0.00000
  30        3S          0.00000   0.00000  -0.38565   0.50557   0.00000
  31        4S          0.00000   0.00000   1.03405   0.47221   0.00000
  32        5PX         0.00000   0.02447   0.00000   0.00000  -0.23673
  33        5PY         0.01552   0.00000   0.00000   0.00000   0.00000
  34        5PZ         0.00000   0.00000  -0.26138   0.04776   0.00000
  35        6PX         0.00000   0.06460   0.00000   0.00000  -0.35690
  36        6PY         0.06124   0.00000   0.00000   0.00000   0.00000
  37        6PZ         0.00000   0.00000  -0.28334   0.07148   0.00000
  38        7PX         0.00000  -0.14718   0.00000   0.00000   1.65863
  39        7PY        -0.20012   0.00000   0.00000   0.00000   0.00000
  40        7PZ         0.00000   0.00000   0.78517   1.86120   0.00000
  41        8D 0        0.00000   0.00000  -0.01096  -0.00921   0.00000
  42        8D+1        0.00000  -0.00622   0.00000   0.00000  -0.01285
  43        8D-1       -0.00567   0.00000   0.00000   0.00000   0.00000
  44        8D+2        0.00000   0.00000   0.00019  -0.00022   0.00000
  45        8D-2        0.00000   0.00000   0.00000   0.00000   0.00000
                          21        22        23        24        25
                           V         V         V         V         V
     Eigenvalues --     0.16549   0.28108   0.37621   0.37888   0.45213
   1 1   P  1S          0.00000  -0.01738   0.00000   0.00096   0.00000
   2        2S          0.00000   0.09999   0.00000  -0.00550   0.00000
   3        3S          0.00000  -0.08979   0.00000   0.00370   0.00000
   4        4S          0.00000  -2.53919   0.00000   0.06034   0.00000
   5        5S          0.00000  -2.79712   0.00000   0.04728   0.00000
   6        6PX         0.00000   0.00000   0.00000   0.00000   0.00000
   7        6PY        -0.00360   0.00000   0.00000   0.00000   0.17025
   8        6PZ         0.00000  -0.02275   0.00000  -0.00099   0.00000
   9        7PX         0.00000   0.00000   0.00000   0.00000   0.00000
  10        7PY         0.03518   0.00000   0.00000   0.00000  -0.72439
  11        7PZ         0.00000   0.05942   0.00000   0.00233   0.00000
  12        8PX         0.00000   0.00000   0.00000   0.00000   0.00000
  13        8PY        -0.30100   0.00000   0.00000   0.00000   0.74497
  14        8PZ         0.00000   1.71651   0.00000  -0.03755   0.00000
  15        9PX         0.00000   0.00000   0.00000   0.00000   0.00000
  16        9PY        -0.76191   0.00000   0.00000   0.00000  -0.43942
  17        9PZ         0.00000   0.80259   0.00000  -0.01403   0.00000
  18       10D 0        0.00000   0.01640   0.00000  -0.00009   0.00000
  19       10D+1        0.00000   0.00000   0.00000   0.00000   0.00000
  20       10D-1       -0.00522   0.00000   0.00000   0.00000   0.10364
  21       10D+2        0.00000   0.00154   0.00000   0.11787   0.00000
  22       10D-2        0.00000   0.00000   0.11762   0.00000   0.00000
  23       11D 0        0.00000   0.00638   0.00000   0.00947   0.00000
  24       11D+1        0.00000   0.00000   0.00000   0.00000   0.00000
  25       11D-1       -0.04745   0.00000   0.00000   0.00000   0.83502
  26       11D+2        0.00000   0.01495   0.00000   0.96261   0.00000
  27       11D-2        0.00000   0.00000   0.96291   0.00000   0.00000
  28 2   O  1S          0.00000   0.05722   0.00000  -0.00008   0.00000
  29        2S          0.00000  -0.10662   0.00000  -0.00187   0.00000
  30        3S          0.00000  -0.66612   0.00000   0.00340   0.00000
  31        4S          0.00000   6.01484   0.00000  -0.10851   0.00000
  32        5PX         0.00000   0.00000   0.00000   0.00000   0.00000
  33        5PY        -0.22983   0.00000   0.00000   0.00000   0.22157
  34        5PZ         0.00000   0.13920   0.00000  -0.00822   0.00000
  35        6PX         0.00000   0.00000   0.00000   0.00000   0.00000
  36        6PY        -0.34426   0.00000   0.00000   0.00000   0.11940
  37        6PZ         0.00000   0.51726   0.00000  -0.01327   0.00000
  38        7PX         0.00000   0.00000   0.00000   0.00000   0.00000
  39        7PY         1.65292   0.00000   0.00000   0.00000   0.14190
  40        7PZ         0.00000   1.77310   0.00000  -0.02965   0.00000
  41        8D 0        0.00000  -0.00656   0.00000  -0.00049   0.00000
  42        8D+1        0.00000   0.00000   0.00000   0.00000   0.00000
  43        8D-1       -0.01223   0.00000   0.00000   0.00000  -0.03451
  44        8D+2        0.00000   0.00054   0.00000   0.01919   0.00000
  45        8D-2        0.00000   0.00000   0.01911   0.00000   0.00000
                          26        27        28        29        30
                           V         V         V         V         V
     Eigenvalues --     0.45434   0.51318   0.51628   0.51800   0.68706
   1 1   P  1S          0.00000   0.00000  -0.05425   0.00000  -0.10167
   2        2S          0.00000   0.00000  -0.13268   0.00000  -0.40729
   3        3S          0.00000   0.00000  -1.07414   0.00000  -2.28272
   4        4S          0.00000   0.00000   1.25678   0.00000   5.22536
   5        5S          0.00000   0.00000  -1.02043   0.00000   0.34969
   6        6PX         0.17623   0.00000   0.00000   0.24470   0.00000
   7        6PY         0.00000   0.24362   0.00000   0.00000   0.00000
   8        6PZ         0.00000   0.00000   0.24238   0.00000  -0.19745
   9        7PX        -0.75312   0.00000   0.00000  -1.10598   0.00000
  10        7PY         0.00000  -1.11358   0.00000   0.00000   0.00000
  11        7PZ         0.00000   0.00000  -1.06211   0.00000   0.91870
  12        8PX         0.79208   0.00000   0.00000   1.53200   0.00000
  13        8PY         0.00000   1.56740   0.00000   0.00000   0.00000
  14        8PZ         0.00000   0.00000   1.71385   0.00000  -2.21014
  15        9PX        -0.44479   0.00000   0.00000  -0.42986   0.00000
  16        9PY         0.00000  -0.44592   0.00000   0.00000   0.00000
  17        9PZ         0.00000   0.00000  -0.40615   0.00000   0.21296
  18       10D 0        0.00000   0.00000  -0.03775   0.00000  -0.02025
  19       10D+1        0.10231   0.00000   0.00000  -0.07266   0.00000
  20       10D-1        0.00000  -0.06948   0.00000   0.00000   0.00000
  21       10D+2        0.00000   0.00000   0.00034   0.00000  -0.00031
  22       10D-2        0.00000   0.00000   0.00000   0.00000   0.00000
  23       11D 0        0.00000   0.00000  -0.39488   0.00000  -0.06590
  24       11D+1        0.81870   0.00000   0.00000  -0.59647   0.00000
  25       11D-1        0.00000  -0.57320   0.00000   0.00000   0.00000
  26       11D+2        0.00000   0.00000   0.00271   0.00000   0.00094
  27       11D-2        0.00000   0.00000   0.00000   0.00000   0.00000
  28 2   O  1S          0.00000   0.00000  -0.00443   0.00000  -0.03228
  29        2S          0.00000   0.00000  -0.04756   0.00000   0.18895
  30        3S          0.00000   0.00000   0.44650   0.00000  -0.31841
  31        4S          0.00000   0.00000   0.57357   0.00000  -3.26217
  32        5PX         0.22577   0.00000   0.00000  -0.11187   0.00000
  33        5PY         0.00000  -0.10461   0.00000   0.00000   0.00000
  34        5PZ         0.00000   0.00000  -0.07967   0.00000   0.25173
  35        6PX         0.12878   0.00000   0.00000  -0.22026   0.00000
  36        6PY         0.00000  -0.21850   0.00000   0.00000   0.00000
  37        6PZ         0.00000   0.00000   0.11220   0.00000  -0.00656
  38        7PX         0.11366   0.00000   0.00000  -0.26505   0.00000
  39        7PY         0.00000  -0.26504   0.00000   0.00000   0.00000
  40        7PZ         0.00000   0.00000   0.08645   0.00000  -1.81385
  41        8D 0        0.00000   0.00000   0.01914   0.00000  -0.05639
  42        8D+1       -0.03439   0.00000   0.00000   0.00568   0.00000
  43        8D-1        0.00000   0.00526   0.00000   0.00000   0.00000
  44        8D+2        0.00000   0.00000   0.00015   0.00000   0.00003
  45        8D-2        0.00000   0.00000   0.00000   0.00000   0.00000
                          31        32        33        34        35
                           V         V         V         V         V
     Eigenvalues --     0.89046   1.12959   1.13281   1.14957   1.78913
   1 1   P  1S         -0.03132   0.00000   0.00000  -0.00703  -0.00557
   2        2S         -0.33439   0.00000   0.00000  -0.07702   0.01210
   3        3S         -1.04918   0.00000   0.00000  -0.28206  -0.10366
   4        4S          4.91156   0.00000   0.00000  -1.11665  -0.55017
   5        5S          0.68240   0.00000   0.00000  -0.37419   0.91387
   6        6PX         0.00000   0.00000   0.01744   0.00000   0.00000
   7        6PY         0.00000   0.01850   0.00000   0.00000   0.00000
   8        6PZ         0.13295   0.00000   0.00000   0.00363  -0.04137
   9        7PX         0.00000   0.00000  -0.11163   0.00000   0.00000
  10        7PY         0.00000  -0.11609   0.00000   0.00000   0.00000
  11        7PZ        -0.68326   0.00000   0.00000   0.41909   0.45905
  12        8PX         0.00000   0.00000  -0.13386   0.00000   0.00000
  13        8PY         0.00000  -0.13066   0.00000   0.00000   0.00000
  14        8PZ        -2.39949   0.00000   0.00000   0.78097   0.44660
  15        9PX         0.00000   0.00000   0.33181   0.00000   0.00000
  16        9PY         0.00000   0.33098   0.00000   0.00000   0.00000
  17        9PZ        -0.06379   0.00000   0.00000   0.15231  -0.49975
  18       10D 0        0.13722   0.00000   0.00000   0.03727  -0.01562
  19       10D+1        0.00000   0.00000   0.01510   0.00000   0.00000
  20       10D-1        0.00000   0.01500   0.00000   0.00000   0.00000
  21       10D+2       -0.00155   0.00000   0.00000  -0.00079  -0.00039
  22       10D-2        0.00000   0.00000   0.00000   0.00000   0.00000
  23       11D 0        1.44796   0.00000   0.00000  -0.06744  -0.39507
  24       11D+1        0.00000   0.00000   0.27530   0.00000   0.00000
  25       11D-1        0.00000   0.27735   0.00000   0.00000   0.00000
  26       11D+2       -0.00555   0.00000   0.00000  -0.00274  -0.00098
  27       11D-2        0.00000   0.00000   0.00000   0.00000   0.00000
  28 2   O  1S          0.07910   0.00000   0.00000  -0.01940   0.00288
  29        2S         -0.15326   0.00000   0.00000  -0.10247  -1.91957
  30        3S         -1.54361   0.00000   0.00000   0.44103   3.37140
  31        4S         -3.52688   0.00000   0.00000   1.41579  -1.81021
  32        5PX         0.00000   0.00000  -0.94623   0.00000   0.00000
  33        5PY         0.00000  -0.93804   0.00000   0.00000   0.00000
  34        5PZ        -0.22751   0.00000   0.00000  -0.95663   0.07357
  35        6PX         0.00000   0.00000   1.50617   0.00000   0.00000
  36        6PY         0.00000   1.51212   0.00000   0.00000   0.00000
  37        6PZ        -1.60567   0.00000   0.00000   1.93810   0.54937
  38        7PX         0.00000   0.00000  -0.74943   0.00000   0.00000
  39        7PY         0.00000  -0.75254   0.00000   0.00000   0.00000
  40        7PZ        -1.13008   0.00000   0.00000  -0.12217  -0.22734
  41        8D 0        0.00824   0.00000   0.00000  -0.06313  -0.18223
  42        8D+1        0.00000   0.00000  -0.04503   0.00000   0.00000
  43        8D-1        0.00000  -0.04480   0.00000   0.00000   0.00000
  44        8D+2        0.00032   0.00000   0.00000   0.00039   0.00372
  45        8D-2        0.00000   0.00000   0.00000   0.00000   0.00000
                          36        37        38        39        40
                           V         V         V         V         V
     Eigenvalues --     2.55199   2.55258   2.68239   2.68326   3.21466
   1 1   P  1S          0.00000  -0.00007   0.00000   0.00000  -0.02843
   2        2S          0.00000   0.00043   0.00000   0.00000   0.01848
   3        3S          0.00000  -0.00019   0.00000   0.00000  -0.48116
   4        4S          0.00000  -0.00341   0.00000   0.00000  -1.40796
   5        5S          0.00000  -0.00336   0.00000   0.00000  -0.11187
   6        6PX         0.00000   0.00000   0.03769   0.00000   0.00000
   7        6PY         0.00000   0.00000   0.00000   0.03738   0.00000
   8        6PZ         0.00000  -0.00032   0.00000   0.00000  -0.14967
   9        7PX         0.00000   0.00000  -0.13531   0.00000   0.00000
  10        7PY         0.00000   0.00000   0.00000  -0.13453   0.00000
  11        7PZ         0.00000   0.00108   0.00000   0.00000   1.07213
  12        8PX         0.00000   0.00000  -0.07344   0.00000   0.00000
  13        8PY         0.00000   0.00000   0.00000  -0.07376   0.00000
  14        8PZ         0.00000   0.00105   0.00000   0.00000   0.81637
  15        9PX         0.00000   0.00000   0.01379   0.00000   0.00000
  16        9PY         0.00000   0.00000   0.00000   0.01392   0.00000
  17        9PZ         0.00000   0.00153   0.00000   0.00000  -0.02414
  18       10D 0        0.00000   0.00029   0.00000   0.00000   0.10786
  19       10D+1        0.00000   0.00000   0.14401   0.00000   0.00000
  20       10D-1        0.00000   0.00000   0.00000   0.14224   0.00000
  21       10D+2        0.00000  -0.05371   0.00000   0.00000  -0.00175
  22       10D-2       -0.05363   0.00000   0.00000   0.00000   0.00000
  23       11D 0        0.00000  -0.00102   0.00000   0.00000  -0.84988
  24       11D+1        0.00000   0.00000   0.25973   0.00000   0.00000
  25       11D-1        0.00000   0.00000   0.00000   0.26043   0.00000
  26       11D+2        0.00000  -0.05692   0.00000   0.00000   0.00108
  27       11D-2       -0.05689   0.00000   0.00000   0.00000   0.00000
  28 2   O  1S          0.00000  -0.00026   0.00000   0.00000  -0.04228
  29        2S          0.00000   0.00616   0.00000   0.00000  -0.68976
  30        3S          0.00000  -0.00660   0.00000   0.00000   2.01576
  31        4S          0.00000   0.00850   0.00000   0.00000   0.73974
  32        5PX         0.00000   0.00000  -0.07739   0.00000   0.00000
  33        5PY         0.00000   0.00000   0.00000  -0.07650   0.00000
  34        5PZ         0.00000  -0.00008   0.00000   0.00000  -0.05306
  35        6PX         0.00000   0.00000   0.21086   0.00000   0.00000
  36        6PY         0.00000   0.00000   0.00000   0.21164   0.00000
  37        6PZ         0.00000   0.00093   0.00000   0.00000   1.43630
  38        7PX         0.00000   0.00000   0.00673   0.00000   0.00000
  39        7PY         0.00000   0.00000   0.00000   0.00666   0.00000
  40        7PZ         0.00000   0.00163   0.00000   0.00000   0.13349
  41        8D 0        0.00000   0.00329   0.00000   0.00000   1.13483
  42        8D+1        0.00000   0.00000   1.01931   0.00000   0.00000
  43        8D-1        0.00000   0.00000   0.00000   1.01968   0.00000
  44        8D+2        0.00000   0.99957   0.00000   0.00000  -0.00239
  45        8D-2        0.99958   0.00000   0.00000   0.00000   0.00000
                          41        42        43        44        45
                           V         V         V         V         V
     Eigenvalues --     3.70972   3.70999   3.79030   3.79925   3.91902
   1 1   P  1S          0.00000  -0.00018   0.00000   0.00000  -0.00673
   2        2S          0.00000  -0.00290   0.00000   0.00000  -0.08504
   3        3S          0.00000  -0.00924   0.00000   0.00000  -0.25097
   4        4S          0.00000   0.02987   0.00000   0.00000   1.15996
   5        5S          0.00000   0.00584   0.00000   0.00000   0.24081
   6        6PX         0.00000   0.00000  -0.00536   0.00000   0.00000
   7        6PY         0.00000   0.00000   0.00000  -0.00517   0.00000
   8        6PZ         0.00000   0.00007   0.00000   0.00000   0.01337
   9        7PX         0.00000   0.00000   0.01583   0.00000   0.00000
  10        7PY         0.00000   0.00000   0.00000   0.01543   0.00000
  11        7PZ         0.00000   0.00044   0.00000   0.00000  -0.06249
  12        8PX         0.00000   0.00000   0.09124   0.00000   0.00000
  13        8PY         0.00000   0.00000   0.00000   0.09153   0.00000
  14        8PZ         0.00000  -0.01792   0.00000   0.00000  -0.71987
  15        9PX         0.00000   0.00000   0.00303   0.00000   0.00000
  16        9PY         0.00000   0.00000   0.00000   0.00298   0.00000
  17        9PZ         0.00000   0.00024   0.00000   0.00000   0.00610
  18       10D 0        0.00000  -0.02482   0.00000   0.00000  -1.03105
  19       10D+1        0.00000   0.00000   1.01952   0.00000   0.00000
  20       10D-1        0.00000   0.00000   0.00000   1.01987   0.00000
  21       10D+2        0.00000   1.02420   0.00000   0.00000  -0.02508
  22       10D-2        1.02454   0.00000   0.00000   0.00000   0.00000
  23       11D 0        0.00000   0.01584   0.00000   0.00000   0.66712
  24       11D+1        0.00000   0.00000  -0.48831   0.00000   0.00000
  25       11D-1        0.00000   0.00000   0.00000  -0.48702   0.00000
  26       11D+2        0.00000  -0.37384   0.00000   0.00000   0.00841
  27       11D-2       -0.37368   0.00000   0.00000   0.00000   0.00000
  28 2   O  1S          0.00000   0.00021   0.00000   0.00000   0.01137
  29        2S          0.00000  -0.00224   0.00000   0.00000  -0.03178
  30        3S          0.00000  -0.00932   0.00000   0.00000  -0.50329
  31        4S          0.00000  -0.02206   0.00000   0.00000  -0.87026
  32        5PX         0.00000   0.00000   0.00831   0.00000   0.00000
  33        5PY         0.00000   0.00000   0.00000   0.00819   0.00000
  34        5PZ         0.00000  -0.00279   0.00000   0.00000  -0.09783
  35        6PX         0.00000   0.00000  -0.18068   0.00000   0.00000
  36        6PY         0.00000   0.00000   0.00000  -0.17970   0.00000
  37        6PZ         0.00000  -0.00495   0.00000   0.00000  -0.30396
  38        7PX         0.00000   0.00000  -0.02600   0.00000   0.00000
  39        7PY         0.00000   0.00000   0.00000  -0.02622   0.00000
  40        7PZ         0.00000  -0.00836   0.00000   0.00000  -0.30657
  41        8D 0        0.00000   0.00410   0.00000   0.00000   0.08399
  42        8D+1        0.00000   0.00000  -0.19406   0.00000   0.00000
  43        8D-1        0.00000   0.00000   0.00000  -0.19234   0.00000
  44        8D+2        0.00000   0.06415   0.00000   0.00000  -0.00153
  45        8D-2        0.06411   0.00000   0.00000   0.00000   0.00000
     Beta Molecular Orbital Coefficients:
                           1         2         3         4         5
                           O         O         O         O         O
     Eigenvalues --   -77.16455 -19.18543  -6.63013  -4.79561  -4.79084
   1 1   P  1S          1.00099   0.00001  -0.26885   0.00000  -0.00158
   2        2S         -0.00366   0.00014   1.03434   0.00000   0.00592
   3        3S          0.00022   0.00047   0.05591   0.00000  -0.00126
   4        4S         -0.00065   0.00164  -0.03715   0.00000  -0.00015
   5        5S         -0.00004  -0.00256   0.00288   0.00000   0.00247
   6        6PX         0.00000   0.00000   0.00000   0.99180   0.00000
   7        6PY         0.00000   0.00000   0.00000   0.00000   0.00000
   8        6PZ        -0.00006   0.00000  -0.00497   0.00000   0.99146
   9        7PX         0.00000   0.00000   0.00000   0.02702   0.00000
  10        7PY         0.00000   0.00000   0.00000   0.00000   0.00000
  11        7PZ         0.00007  -0.00115  -0.00367   0.00000   0.02860
  12        8PX         0.00000   0.00000   0.00000  -0.00687   0.00000
  13        8PY         0.00000   0.00000   0.00000   0.00000   0.00000
  14        8PZ         0.00026  -0.00142   0.00409   0.00000  -0.00616
  15        9PX         0.00000   0.00000   0.00000   0.00165   0.00000
  16        9PY         0.00000   0.00000   0.00000   0.00000   0.00000
  17        9PZ        -0.00001   0.00145   0.00038   0.00000   0.00116
  18       10D 0        0.00001   0.00006  -0.00019   0.00000  -0.00082
  19       10D+1        0.00000   0.00000   0.00000  -0.00071   0.00000
  20       10D-1        0.00000   0.00000   0.00000   0.00000   0.00000
  21       10D+2        0.00000   0.00000   0.00082   0.00000   0.00008
  22       10D-2        0.00000   0.00000   0.00000   0.00000   0.00000
  23       11D 0       -0.00010   0.00064   0.00191   0.00000  -0.00194
  24       11D+1        0.00000   0.00000   0.00000  -0.00012   0.00000
  25       11D-1        0.00000   0.00000   0.00000   0.00000   0.00000
  26       11D+2        0.00000   0.00000   0.00023   0.00000   0.00005
  27       11D-2        0.00000   0.00000   0.00000   0.00000   0.00000
  28 2   O  1S         -0.00001   0.99659  -0.00012   0.00000   0.00087
  29        2S         -0.00004   0.02249   0.00100   0.00000  -0.00150
  30        3S          0.00020  -0.01231  -0.00374   0.00000   0.00301
  31        4S          0.00040   0.00507   0.01206   0.00000  -0.00362
  32        5PX         0.00000   0.00000   0.00000   0.00017   0.00000
  33        5PY         0.00000   0.00000   0.00000   0.00000   0.00000
  34        5PZ         0.00001   0.00112  -0.00039   0.00000  -0.00151
  35        6PX         0.00000   0.00000   0.00000  -0.00029   0.00000
  36        6PY         0.00000   0.00000   0.00000   0.00000   0.00000
  37        6PZ         0.00014  -0.00220  -0.00317   0.00000   0.00290
  38        7PX         0.00000   0.00000   0.00000   0.00081   0.00000
  39        7PY         0.00000   0.00000   0.00000   0.00000   0.00000
  40        7PZ         0.00018   0.00066   0.00741   0.00000  -0.00210
  41        8D 0        0.00004  -0.00019  -0.00080   0.00000  -0.00084
  42        8D+1        0.00000   0.00000   0.00000  -0.00006   0.00000
  43        8D-1        0.00000   0.00000   0.00000   0.00000   0.00000
  44        8D+2        0.00000   0.00007  -0.00001   0.00000  -0.00001
  45        8D-2        0.00000   0.00000   0.00000   0.00000   0.00000
                           6         7         8         9        10
                           O         O         O         O         O
     Eigenvalues --    -4.78314  -1.02013  -0.54367  -0.39219  -0.38437
   1 1   P  1S          0.00000   0.02908   0.06626   0.00000  -0.02671
   2        2S          0.00000  -0.10858  -0.24218   0.00000   0.10496
   3        3S          0.00000   0.18581   0.48029   0.00000  -0.18415
   4        4S          0.00000   0.07654   0.43649   0.00000  -0.26764
   5        5S          0.00000   0.01004   0.03615   0.00000  -0.01621
   6        6PX         0.00000   0.00000   0.00000  -0.13253   0.00000
   7        6PY         0.99216   0.00000   0.00000   0.00000   0.00000
   8        6PZ         0.00000   0.08681  -0.00804   0.00000   0.17635
   9        7PX         0.00000   0.00000   0.00000   0.29426   0.00000
  10        7PY         0.02579   0.00000   0.00000   0.00000   0.00000
  11        7PZ         0.00000  -0.14688   0.00934   0.00000  -0.39659
  12        8PX         0.00000   0.00000   0.00000   0.18353   0.00000
  13        8PY        -0.00638   0.00000   0.00000   0.00000   0.00000
  14        8PZ         0.00000  -0.01846   0.01415   0.00000  -0.20933
  15        9PX         0.00000   0.00000   0.00000  -0.00707   0.00000
  16        9PY         0.00154   0.00000   0.00000   0.00000   0.00000
  17        9PZ         0.00000  -0.00610  -0.00969   0.00000  -0.01957
  18       10D 0        0.00000   0.01512   0.00242   0.00000   0.01774
  19       10D+1        0.00000   0.00000   0.00000  -0.01562   0.00000
  20       10D-1       -0.00086   0.00000   0.00000   0.00000   0.00000
  21       10D+2        0.00000   0.00037   0.00206   0.00000  -0.00165
  22       10D-2        0.00000   0.00000   0.00000   0.00000   0.00000
  23       11D 0        0.00000   0.05966   0.01813   0.00000   0.07433
  24       11D+1        0.00000   0.00000   0.00000  -0.09025   0.00000
  25       11D-1       -0.00022   0.00000   0.00000   0.00000   0.00000
  26       11D+2        0.00000   0.00435   0.02027   0.00000  -0.01644
  27       11D-2        0.00000   0.00000   0.00000   0.00000   0.00000
  28 2   O  1S          0.00000  -0.20372   0.09617   0.00000   0.03074
  29        2S          0.00000   0.43268  -0.21090   0.00000  -0.06053
  30        3S          0.00000   0.42426  -0.33192   0.00000  -0.14678
  31        4S          0.00000  -0.01294  -0.12597   0.00000  -0.14987
  32        5PX         0.00000   0.00000   0.00000   0.53125   0.00000
  33        5PY         0.00016   0.00000   0.00000   0.00000   0.00000
  34        5PZ         0.00000   0.13987   0.29229   0.00000   0.47101
  35        6PX         0.00000   0.00000   0.00000   0.33960   0.00000
  36        6PY        -0.00024   0.00000   0.00000   0.00000   0.00000
  37        6PZ         0.00000   0.04268   0.12042   0.00000   0.23373
  38        7PX         0.00000   0.00000   0.00000   0.05740   0.00000
  39        7PY         0.00072   0.00000   0.00000   0.00000   0.00000
  40        7PZ         0.00000  -0.00952  -0.00717   0.00000   0.01441
  41        8D 0        0.00000   0.01650   0.01132   0.00000   0.01602
  42        8D+1        0.00000   0.00000   0.00000   0.02453   0.00000
  43        8D-1       -0.00003   0.00000   0.00000   0.00000   0.00000
  44        8D+2        0.00000   0.00357  -0.00199   0.00000  -0.00088
  45        8D-2        0.00000   0.00000   0.00000   0.00000   0.00000
                          11        12        13        14        15
                           O         V         V         V         V
     Eigenvalues --    -0.36938  -0.12824  -0.09784  -0.00472   0.02033
   1 1   P  1S          0.00000   0.00000   0.00000  -0.00840  -0.02333
   2        2S          0.00000   0.00000   0.00000   0.05091   0.08288
   3        3S          0.00000   0.00000   0.00000  -0.03187  -0.19094
   4        4S          0.00000   0.00000   0.00000  -0.36672  -0.47585
   5        5S          0.00000   0.00000   0.00000  -0.86631   1.93492
   6        6PX         0.00000  -0.20198   0.00000   0.00000   0.00000
   7        6PY        -0.12560   0.00000  -0.19605   0.00000   0.00000
   8        6PZ         0.00000   0.00000   0.00000  -0.07399   0.04159
   9        7PX         0.00000   0.47008   0.00000   0.00000   0.00000
  10        7PY         0.27646   0.00000   0.45124   0.00000   0.00000
  11        7PZ         0.00000   0.00000   0.00000   0.17085  -0.08121
  12        8PX         0.00000   0.56094   0.00000   0.00000   0.00000
  13        8PY         0.17075   0.00000   0.55731   0.00000   0.00000
  14        8PZ         0.00000   0.00000   0.00000   0.59399  -0.44355
  15        9PX         0.00000   0.21033   0.00000   0.00000   0.00000
  16        9PY        -0.00572   0.00000   0.28126   0.00000   0.00000
  17        9PZ         0.00000   0.00000   0.00000   0.95911   0.31589
  18       10D 0        0.00000   0.00000   0.00000   0.03240   0.00044
  19       10D+1        0.00000   0.01590   0.00000   0.00000   0.00000
  20       10D-1       -0.01621   0.00000   0.01499   0.00000   0.00000
  21       10D+2        0.00000   0.00000   0.00000  -0.00168  -0.00114
  22       10D-2        0.00000   0.00000   0.00000   0.00000   0.00000
  23       11D 0        0.00000   0.00000   0.00000   0.15257   0.00978
  24       11D+1        0.00000   0.09271   0.00000   0.00000   0.00000
  25       11D-1       -0.09318   0.00000   0.08360   0.00000   0.00000
  26       11D+2        0.00000   0.00000   0.00000  -0.01572  -0.00712
  27       11D-2        0.00000   0.00000   0.00000   0.00000   0.00000
  28 2   O  1S          0.00000   0.00000   0.00000  -0.05192   0.00807
  29        2S          0.00000   0.00000   0.00000   0.11829  -0.02425
  30        3S          0.00000   0.00000   0.00000   0.33004  -0.04254
  31        4S          0.00000   0.00000   0.00000   0.97776  -0.85412
  32        5PX         0.00000  -0.35113   0.00000   0.00000   0.00000
  33        5PY         0.53461   0.00000  -0.33526   0.00000   0.00000
  34        5PZ         0.00000   0.00000   0.00000   0.13551   0.06853
  35        6PX         0.00000  -0.28290   0.00000   0.00000   0.00000
  36        6PY         0.34846   0.00000  -0.27171   0.00000   0.00000
  37        6PZ         0.00000   0.00000   0.00000   0.17818   0.03136
  38        7PX         0.00000  -0.20174   0.00000   0.00000   0.00000
  39        7PY         0.06688   0.00000  -0.22696   0.00000   0.00000
  40        7PZ         0.00000   0.00000   0.00000   0.09762  -0.40674
  41        8D 0        0.00000   0.00000   0.00000   0.00910  -0.00270
  42        8D+1        0.00000  -0.00082   0.00000   0.00000   0.00000
  43        8D-1        0.02490   0.00000  -0.00022   0.00000   0.00000
  44        8D+2        0.00000   0.00000   0.00000   0.00060  -0.00017
  45        8D-2        0.00000   0.00000   0.00000   0.00000   0.00000
                          16        17        18        19        20
                           V         V         V         V         V
     Eigenvalues --     0.04918   0.05407   0.11278   0.15963   0.16512
   1 1   P  1S          0.00000   0.00000   0.00993   0.01816   0.00000
   2        2S          0.00000   0.00000  -0.03074  -0.13027   0.00000
   3        3S          0.00000   0.00000   0.09339   0.03805   0.00000
   4        4S          0.00000   0.00000  -0.23205   1.88157   0.00000
   5        5S          0.00000   0.00000  -0.86608  -0.22782   0.00000
   6        6PX         0.10214   0.00000   0.00000   0.00000  -0.00571
   7        6PY         0.00000   0.10922   0.00000   0.00000   0.00000
   8        6PZ         0.00000   0.00000   0.09065   0.07373   0.00000
   9        7PX        -0.24882   0.00000   0.00000   0.00000   0.03726
  10        7PY         0.00000  -0.25619   0.00000   0.00000   0.00000
  11        7PZ         0.00000   0.00000  -0.22496  -0.16961   0.00000
  12        8PX        -0.46743   0.00000   0.00000   0.00000  -0.27374
  13        8PY         0.00000  -0.52334   0.00000   0.00000   0.00000
  14        8PZ         0.00000   0.00000  -0.57452  -0.94988   0.00000
  15        9PX         1.26216   0.00000   0.00000   0.00000  -0.80198
  16        9PY         0.00000   1.26215   0.00000   0.00000   0.00000
  17        9PZ         0.00000   0.00000   0.84986   1.04307   0.00000
  18       10D 0        0.00000   0.00000  -0.04335  -0.01827   0.00000
  19       10D+1        0.00022   0.00000   0.00000   0.00000  -0.00318
  20       10D-1        0.00000  -0.00033   0.00000   0.00000   0.00000
  21       10D+2        0.00000   0.00000   0.00264   0.00195   0.00000
  22       10D-2        0.00000   0.00000   0.00000   0.00000   0.00000
  23       11D 0        0.00000   0.00000  -0.21699  -0.06617   0.00000
  24       11D+1        0.00883   0.00000   0.00000   0.00000  -0.03156
  25       11D-1        0.00000   0.00651   0.00000   0.00000   0.00000
  26       11D+2        0.00000   0.00000   0.02320   0.01417   0.00000
  27       11D-2        0.00000   0.00000   0.00000   0.00000   0.00000
  28 2   O  1S          0.00000   0.00000   0.02596   0.05167   0.00000
  29        2S          0.00000   0.00000  -0.00596  -0.08271   0.00000
  30        3S          0.00000   0.00000  -0.39658  -0.54030   0.00000
  31        4S          0.00000   0.00000   1.09613  -0.44026   0.00000
  32        5PX         0.02793   0.00000   0.00000   0.00000  -0.23766
  33        5PY         0.00000   0.04186   0.00000   0.00000   0.00000
  34        5PZ         0.00000   0.00000  -0.26538  -0.06019   0.00000
  35        6PX         0.06763   0.00000   0.00000   0.00000  -0.36032
  36        6PY         0.00000   0.08310   0.00000   0.00000   0.00000
  37        6PZ         0.00000   0.00000  -0.28435  -0.08929   0.00000
  38        7PX        -0.14075   0.00000   0.00000   0.00000   1.65959
  39        7PY         0.00000  -0.13624   0.00000   0.00000   0.00000
  40        7PZ         0.00000   0.00000   0.88283  -1.83009   0.00000
  41        8D 0        0.00000   0.00000  -0.01212   0.00779   0.00000
  42        8D+1       -0.00632   0.00000   0.00000   0.00000  -0.01299
  43        8D-1        0.00000  -0.00641   0.00000   0.00000   0.00000
  44        8D+2        0.00000   0.00000   0.00012  -0.00078   0.00000
  45        8D-2        0.00000   0.00000   0.00000   0.00000   0.00000
                          21        22        23        24        25
                           V         V         V         V         V
     Eigenvalues --     0.17025   0.28224   0.41260   0.41301   0.45765
   1 1   P  1S          0.00000  -0.01783   0.00000  -0.00540   0.00000
   2        2S          0.00000   0.10476   0.00000   0.01152   0.00000
   3        3S          0.00000  -0.08753   0.00000  -0.06060   0.00000
   4        4S          0.00000  -2.57519   0.00000  -0.10823   0.00000
   5        5S          0.00000  -2.78693   0.00000  -0.09415   0.00000
   6        6PX         0.00000   0.00000   0.00000   0.00000   0.17527
   7        6PY        -0.00619   0.00000   0.00000   0.00000   0.00000
   8        6PZ         0.00000  -0.02492   0.00000   0.00034   0.00000
   9        7PX         0.00000   0.00000   0.00000   0.00000  -0.74906
  10        7PY         0.03831   0.00000   0.00000   0.00000   0.00000
  11        7PZ         0.00000   0.06667   0.00000  -0.00411   0.00000
  12        8PX         0.00000   0.00000   0.00000   0.00000   0.78716
  13        8PY        -0.27192   0.00000   0.00000   0.00000   0.00000
  14        8PZ         0.00000   1.74010   0.00000   0.14997   0.00000
  15        9PX         0.00000   0.00000   0.00000   0.00000  -0.43817
  16        9PY        -0.79567   0.00000   0.00000   0.00000   0.00000
  17        9PZ         0.00000   0.79318   0.00000  -0.00502   0.00000
  18       10D 0        0.00000   0.01707   0.00000  -0.00088   0.00000
  19       10D+1        0.00000   0.00000   0.00000   0.00000   0.10290
  20       10D-1       -0.00181   0.00000   0.00000   0.00000   0.00000
  21       10D+2        0.00000  -0.00354   0.00000   0.11981   0.00000
  22       10D-2        0.00000   0.00000   0.12012   0.00000   0.00000
  23       11D 0        0.00000   0.00519   0.00000  -0.03205   0.00000
  24       11D+1        0.00000   0.00000   0.00000   0.00000   0.82084
  25       11D-1       -0.01967   0.00000   0.00000   0.00000   0.00000
  26       11D+2        0.00000  -0.02706   0.00000   0.95994   0.00000
  27       11D-2        0.00000   0.00000   0.96191   0.00000   0.00000
  28 2   O  1S          0.00000   0.05632   0.00000  -0.00308   0.00000
  29        2S          0.00000  -0.10256   0.00000   0.00517   0.00000
  30        3S          0.00000  -0.65508   0.00000   0.04583   0.00000
  31        4S          0.00000   6.02301   0.00000   0.20156   0.00000
  32        5PX         0.00000   0.00000   0.00000   0.00000   0.22732
  33        5PY        -0.23801   0.00000   0.00000   0.00000   0.00000
  34        5PZ         0.00000   0.14633   0.00000   0.02376   0.00000
  35        6PX         0.00000   0.00000   0.00000   0.00000   0.13265
  36        6PY        -0.36718   0.00000   0.00000   0.00000   0.00000
  37        6PZ         0.00000   0.53231   0.00000   0.05543   0.00000
  38        7PX         0.00000   0.00000   0.00000   0.00000   0.10785
  39        7PY         1.66118   0.00000   0.00000   0.00000   0.00000
  40        7PZ         0.00000   1.77130   0.00000   0.05825   0.00000
  41        8D 0        0.00000  -0.00655   0.00000   0.00064   0.00000
  42        8D+1        0.00000   0.00000   0.00000   0.00000  -0.03458
  43        8D-1       -0.01318   0.00000   0.00000   0.00000   0.00000
  44        8D+2        0.00000  -0.00100   0.00000   0.02040   0.00000
  45        8D-2        0.00000   0.00000   0.02037   0.00000   0.00000
                          26        27        28        29        30
                           V         V         V         V         V
     Eigenvalues --     0.48056   0.52214   0.52385   0.54670   0.69506
   1 1   P  1S          0.00000   0.00000  -0.05148   0.00000  -0.10293
   2        2S          0.00000   0.00000  -0.12286   0.00000  -0.41102
   3        3S          0.00000   0.00000  -1.01497   0.00000  -2.30932
[...]
  28 2   O  1S          0.00000  -0.00007   0.00000   0.00000   0.00000
  29        2S          0.00000  -0.00021   0.00012   0.00000   0.00000
  30        3S          0.00000  -0.00242   0.00018   0.00000   0.00000
  31        4S          0.00000  -0.00425  -0.00003   0.00000   0.00000
  32        5PX         0.00000   0.00000   0.00000   0.00007   0.00000
  33        5PY        -0.00251   0.00000   0.00000   0.00000   0.00010
  34        5PZ         0.00000  -0.00051   0.00055   0.00000   0.00000
  35        6PX         0.00000   0.00000   0.00000   0.00036   0.00000
  36        6PY        -0.01028   0.00000   0.00000   0.00000   0.00051
  37        6PZ         0.00000  -0.00137   0.00039   0.00000   0.00000
  38        7PX         0.00000   0.00000   0.00000   0.00001   0.00000
  39        7PY        -0.01707   0.00000   0.00000   0.00000   0.00004
  40        7PZ         0.00000  -0.00006   0.00000   0.00000   0.00000
  41        8D 0        0.00000  -0.00001   0.00006   0.00000   0.00000
  42        8D+1        0.00000   0.00000   0.00000   0.00001   0.00000
  43        8D-1        0.00000   0.00000   0.00000   0.00000   0.00001
  44        8D+2        0.00000   0.00000   0.00000   0.00000   0.00000
  45        8D-2        0.00000   0.00000   0.00000   0.00000   0.00000
                          21        22        23        24        25
  21       10D+2        0.00001
  22       10D-2        0.00000   0.00000
  23       11D 0        0.00000   0.00000   0.02054
  24       11D+1        0.00000   0.00000   0.00000   0.01596
  25       11D-1        0.00000   0.00000   0.00000   0.00000   0.02461
  26       11D+2        0.00002   0.00000   0.00000   0.00000   0.00000
  27       11D-2        0.00000   0.00000   0.00000   0.00000   0.00000
  28 2   O  1S          0.00000   0.00000  -0.00120   0.00000   0.00000
  29        2S          0.00000   0.00000   0.01309   0.00000   0.00000
  30        3S          0.00000   0.00000   0.00631   0.00000   0.00000
  31        4S          0.00000   0.00000  -0.00227   0.00000   0.00000
  32        5PX         0.00000   0.00000   0.00000   0.01613   0.00000
  33        5PY         0.00000   0.00000   0.00000   0.00000   0.02160
  34        5PZ         0.00000   0.00000   0.02439   0.00000   0.00000
  35        6PX         0.00000   0.00000   0.00000   0.02419   0.00000
  36        6PY         0.00000   0.00000   0.00000   0.00000   0.03432
  37        6PZ         0.00000   0.00000   0.00554   0.00000   0.00000
  38        7PX         0.00000   0.00000   0.00000   0.00148   0.00000
  39        7PY         0.00000   0.00000   0.00000   0.00000   0.00396
  40        7PZ         0.00000   0.00000  -0.00011   0.00000   0.00000
  41        8D 0        0.00000   0.00000   0.00050   0.00000   0.00000
  42        8D+1        0.00000   0.00000   0.00000   0.00092   0.00000
  43        8D-1        0.00000   0.00000   0.00000   0.00000   0.00087
  44        8D+2        0.00000   0.00000   0.00000   0.00000   0.00000
  45        8D-2        0.00000   0.00000   0.00000   0.00000   0.00000
                          26        27        28        29        30
  26       11D+2        0.00080
  27       11D-2        0.00000   0.00000
  28 2   O  1S          0.00000   0.00000   2.09006
  29        2S          0.00000   0.00000  -0.03989   0.47767
  30        3S          0.00000   0.00000  -0.04969   0.41647   0.62141
  31        4S          0.00000   0.00000  -0.00125   0.02326   0.08521
  32        5PX         0.00000   0.00000   0.00000   0.00000   0.00000
  33        5PY         0.00000   0.00000   0.00000   0.00000   0.00000
  34        5PZ         0.00000   0.00000   0.00000   0.00000   0.00000
  35        6PX         0.00000   0.00000   0.00000   0.00000   0.00000
  36        6PY         0.00000   0.00000   0.00000   0.00000   0.00000
  37        6PZ         0.00000   0.00000   0.00000   0.00000   0.00000
  38        7PX         0.00000   0.00000   0.00000   0.00000   0.00000
  39        7PY         0.00000   0.00000   0.00000   0.00000   0.00000
  40        7PZ         0.00000   0.00000   0.00000   0.00000   0.00000
  41        8D 0        0.00000   0.00000   0.00000   0.00000   0.00000
  42        8D+1        0.00000   0.00000   0.00000   0.00000   0.00000
  43        8D-1        0.00000   0.00000   0.00000   0.00000   0.00000
  44        8D+2        0.00000   0.00000   0.00000   0.00000   0.00000
  45        8D-2        0.00000   0.00000   0.00000   0.00000   0.00000
                          31        32        33        34        35
  31        4S          0.07603
  32        5PX         0.00000   0.56627
  33        5PY         0.00000   0.00000   0.71874
  34        5PZ         0.00000   0.00000   0.00000   0.65840
  35        6PX         0.00000   0.18001   0.00000   0.00000   0.22773
  36        6PY         0.00000   0.00000   0.23562   0.00000   0.00000
  37        6PZ         0.00000   0.00000   0.00000   0.15084   0.00000
  38        7PX         0.00000   0.00768   0.00000   0.00000   0.02127
  39        7PY         0.00000   0.00000   0.01561   0.00000   0.00000
  40        7PZ         0.00000   0.00000   0.00000   0.00077   0.00000
  41        8D 0        0.00000   0.00000   0.00000   0.00000   0.00000
  42        8D+1        0.00000   0.00000   0.00000   0.00000   0.00000
  43        8D-1        0.00000   0.00000   0.00000   0.00000   0.00000
  44        8D+2        0.00000   0.00000   0.00000   0.00000   0.00000
  45        8D-2        0.00000   0.00000   0.00000   0.00000   0.00000
                          36        37        38        39        40
  36        6PY         0.30990
  37        6PZ         0.00000   0.13944
  38        7PX         0.00000   0.00000   0.00610
  39        7PY         0.04788   0.00000   0.00000   0.03382
  40        7PZ         0.00000   0.00210   0.00000   0.00000   0.00083
  41        8D 0        0.00000   0.00000   0.00000   0.00000   0.00000
  42        8D+1        0.00000   0.00000   0.00000   0.00000   0.00000
  43        8D-1        0.00000   0.00000   0.00000   0.00000   0.00000
  44        8D+2        0.00000   0.00000   0.00000   0.00000   0.00000
  45        8D-2        0.00000   0.00000   0.00000   0.00000   0.00000
                          41        42        43        44        45
  41        8D 0        0.00131
  42        8D+1        0.00000   0.00121
  43        8D-1        0.00000   0.00000   0.00116
  44        8D+2        0.00000   0.00000   0.00000   0.00002
  45        8D-2        0.00000   0.00000   0.00000   0.00000   0.00000
     Gross orbital populations:
                         Total     Alpha     Beta      Spin
   1 1   P  1S          2.00003   1.00001   1.00002   0.00000
   2        2S          2.00851   1.00430   1.00421   0.00009
   3        3S          1.02899   0.51742   0.51157   0.00585
   4        4S          0.82392   0.41325   0.41067   0.00258
   5        5S          0.04849   0.02345   0.02503  -0.00158
   6        6PX         1.98592   0.99297   0.99296   0.00001
   7        6PY         1.98943   0.99625   0.99318   0.00308
   8        6PZ         1.98926   0.99461   0.99465  -0.00004
   9        7PX         0.31927   0.16154   0.15773   0.00381
  10        7PY         0.65010   0.50683   0.14326   0.36357
  11        7PZ         0.60781   0.30280   0.30501  -0.00221
  12        8PX         0.21580   0.10921   0.10659   0.00262
  13        8PY         0.57777   0.48073   0.09704   0.38370
  14        8PZ         0.16312   0.07952   0.08361  -0.00409
  15        9PX        -0.00443  -0.00222  -0.00221  -0.00002
  16        9PY         0.05165   0.05343  -0.00178   0.05520
  17        9PZ        -0.00063  -0.00078   0.00015  -0.00092
  18       10D 0        0.00361   0.00184   0.00177   0.00008
  19       10D+1        0.00164   0.00080   0.00084  -0.00004
  20       10D-1        0.00245   0.00156   0.00090   0.00066
  21       10D+2        0.00003   0.00000   0.00003  -0.00002
  22       10D-2        0.00000   0.00000   0.00000   0.00000
  23       11D 0        0.06802   0.03539   0.03262   0.00277
  24       11D+1        0.05939   0.02902   0.03037  -0.00135
  25       11D-1        0.08644   0.05428   0.03216   0.02211
  26       11D+2        0.00082   0.00010   0.00072  -0.00061
  27       11D-2        0.00000   0.00000   0.00000   0.00000
  28 2   O  1S          1.99865   0.99933   0.99932   0.00001
  29        2S          0.88570   0.44641   0.43930   0.00711
  30        3S          0.95987   0.47918   0.48068  -0.00150
  31        4S          0.06674   0.02986   0.03687  -0.00701
  32        5PX         0.80796   0.40447   0.40349   0.00098
  33        5PY         0.99608   0.58616   0.40992   0.17624
  34        5PZ         0.95995   0.48152   0.47843   0.00309
  35        6PX         0.55307   0.27454   0.27853  -0.00399
  36        6PY         0.61740   0.32891   0.28849   0.04041
  37        6PZ         0.39490   0.19637   0.19853  -0.00217
  38        7PX         0.05731   0.02766   0.02965  -0.00199
  39        7PY         0.02490  -0.00989   0.03479  -0.04467
  40        7PZ        -0.01343  -0.00740  -0.00603  -0.00137
  41        8D 0        0.00562   0.00280   0.00282  -0.00002
  42        8D+1        0.00407   0.00202   0.00205  -0.00003
  43        8D-1        0.00379   0.00174   0.00204  -0.00030
  44        8D+2        0.00002   0.00000   0.00002  -0.00002
  45        8D-2        0.00000   0.00000   0.00000   0.00000
          Condensed to atoms (all electrons):
               1          2
     1  P   14.476707   0.200696
     2  O    0.200696   8.121900
          Atomic-Atomic Spin Densities.
               1          2
     1  P    1.062870  -0.227643
     2  O   -0.227643   0.392415
 Mulliken charges and spin densities:
               1          2
     1  P    0.322596   0.835227
     2  O   -0.322596   0.164773
 Sum of Mulliken charges =   0.00000   1.00000
 Mulliken charges and spin densities with hydrogens summed into heavy atoms:
               1          2
     1  P    0.322596   0.835227
     2  O   -0.322596   0.164773
 Electronic spatial extent (au):  <R**2>=             82.6350
 Charge=              0.0000 electrons
 Dipole moment (field-independent basis, Debye):
    X=              0.0000    Y=              0.0000    Z=              2.2304  Tot=              2.2304
 Quadrupole moment (field-independent basis, Debye-Ang):
   XX=            -16.2278   YY=            -19.2060   ZZ=            -19.6987
   XY=              0.0000   XZ=              0.0000   YZ=              0.0000
 Traceless Quadrupole moment (field-independent basis, Debye-Ang):
   XX=              2.1497   YY=             -0.8285   ZZ=             -1.3212
   XY=              0.0000   XZ=              0.0000   YZ=              0.0000
 Octapole moment (field-independent basis, Debye-Ang**2):
  XXX=              0.0000  YYY=              0.0000  ZZZ=             -0.7018  XYY=              0.0000
  XXY=              0.0000  XXZ=             -0.2781  XZZ=              0.0000  YZZ=              0.0000
  YYZ=             -2.3678  XYZ=              0.0000
 Hexadecapole moment (field-independent basis, Debye-Ang**3):
 XXXX=            -19.0085 YYYY=            -30.0167 ZZZZ=            -78.1401 XXXY=              0.0000
 XXXZ=              0.0000 YYYX=              0.0000 YYYZ=              0.0000 ZZZX=              0.0000
 ZZZY=              0.0000 XXYY=             -8.1703 XXZZ=            -15.5304 YYZZ=            -19.2431
 XXYZ=              0.0000 YYXZ=              0.0000 ZZXY=              0.0000
 N-N= 4.247415318763D+01 E-N=-1.074621589186D+03  KE= 4.152810088157D+02
 Symmetry A1   KE= 3.467003575608D+02
 Symmetry A2   KE= 3.872145645050D-35
 Symmetry B1   KE= 3.335573240476D+01
 Symmetry B2   KE= 3.522491885011D+01
 Orbital energies and kinetic energies (alpha):
                                 1                 2
   1         O               -77.166936        106.194882
   2         O               -19.192114         29.123349
   3         O                -6.632967         15.719862
   4         O                -4.796917         14.701772
   5         O                -4.793696         14.709366
   6         O                -4.792095         14.692330
   7         O                -1.036177          2.915950
   8         O                -0.569852          2.460190
   9         O                -0.413336          2.055415
  10         O                -0.400959          2.270369
  11         O                -0.398997          1.981900
  12         O                -0.207948          1.787747
  13         V                -0.137193          1.698014
  14         V                -0.008691          0.680926
  15         V                 0.017708          0.358112
  16         V                 0.045703          0.293815
  17         V                 0.049193          0.330928
  18         V                 0.108263          0.901184
  19         V                 0.157666          0.653178
  20         V                 0.165157          0.528574
  21         V                 0.165503          0.509084
  22         V                 0.281134          0.840095
  23         V                 0.376360          1.466541
  24         V                 0.379023          1.467360
  25         V                 0.453095          2.030160
  26         V                 0.455269          2.054852
  27         V                 0.513662          2.102420
  28         V                 0.516613          2.305783
  29         V                 0.518527          2.143814
  30         V                 0.689997          3.036437
  31         V                 0.894087          2.723531
  32         V                 1.129310          3.545035
  33         V                 1.132509          3.594433
  34         V                 1.149314          3.657625
  35         V                 1.788245          4.239953
  36         V                 2.551557          4.173545
  37         V                 2.552146          4.173599
  38         V                 2.684600          4.502198
  39         V                 2.685484          4.499494
  40         V                 3.218430          5.444689
  41         V                 3.710171          8.969183
  42         V                 3.710439          8.968470
  43         V                 3.790533          8.926367
  44         V                 3.799475          8.930317
  45         V                 3.921113          9.062938
 Orbital energies and kinetic energies (beta):
                                 1                 2
   1         O               -77.163833        106.196311
   2         O               -19.185065         29.129207
   3         O                -6.629641         15.722327
   4         O                -4.795094         14.702454
   5         O                -4.790351         14.693241
   6         O                -4.782640         14.712382
   7         O                -1.021966          2.887919
   8         O                -0.543235          2.489298
   9         O                -0.393312          1.969607
  10         O                -0.384567          2.205123
  11         O                -0.370528          1.960010
  12         V                -0.127551          1.668192
  13         V                -0.097174          1.556463
  14         V                -0.004369          0.613832
  15         V                 0.020416          0.354573
  16         V                 0.049237          0.342531
  17         V                 0.054139          0.386533
  18         V                 0.113076          0.914586
  19         V                 0.160104          0.706617
  20         V                 0.165099          0.532031
  21         V                 0.170223          0.536245
  22         V                 0.282305          0.857013
  23         V                 0.412708          1.472113
  24         V                 0.413121          1.478735
  25         V                 0.458584          2.055633
  26         V                 0.481449          2.091028
  27         V                 0.522654          2.158105
  28         V                 0.524211          2.318006
  29         V                 0.547279          2.169670
  30         V                 0.697946          3.021944
  31         V                 0.905874          2.727181
  32         V                 1.135673          3.606600
  33         V                 1.150777          3.625177
  34         V                 1.153654          3.682403
  35         V                 1.795865          4.249359
  36         V                 2.571693          4.174473
  37         V                 2.571726          4.174346
  38         V                 2.687622          4.503303
  39         V                 2.705507          4.505424
  40         V                 3.228702          5.446905
  41         V                 3.715321          8.962796
  42         V                 3.715620          8.962810
  43         V                 3.790750          8.924397
  44         V                 3.805848          8.919921
  45         V                 3.923813          9.058964
 Total kinetic energy from orbitals= 4.152810088157D+02
                          Isotropic Fermi Contact Couplings
        Atom                 a.u.       MegaHertz       Gauss      10(-4) cm-1
     1  P(31)              0.05099      92.35307      32.95387      30.80567
     2  O(17)              0.05435     -32.94798     -11.75666     -10.99026
 --------------------------------------------------------
       Center         ----  Spin Dipole Couplings  ----
                      3XX-RR        3YY-RR        3ZZ-RR
 --------------------------------------------------------
     1   Atom       -1.044143      2.117876     -1.073733
     2   Atom       -0.579308      1.114567     -0.535259
 --------------------------------------------------------
                        XY            XZ            YZ
 --------------------------------------------------------
     1   Atom        0.000000      0.000000      0.000000
     2   Atom        0.000000      0.000000      0.000000
 --------------------------------------------------------


 ---------------------------------------------------------------------------------
              Anisotropic Spin Dipole Couplings in Principal Axis System
 ---------------------------------------------------------------------------------

       Atom             a.u.   MegaHertz   Gauss  10(-4) cm-1        Axes

              Baa    -1.0737  -232.124   -82.828   -77.428  0.0000  0.0000  1.0000
     1 P(31)  Bbb    -1.0441  -225.727   -80.545   -75.294  1.0000  0.0000  0.0000
              Bcc     2.1179   457.851   163.372   152.722  0.0000  1.0000  0.0000
 
              Baa    -0.5793    41.918    14.957    13.982  1.0000  0.0000  0.0000
     2 O(17)  Bbb    -0.5353    38.731    13.820    12.919  0.0000  0.0000  1.0000
              Bcc     1.1146   -80.649   -28.778   -26.902  0.0000  1.0000  0.0000
 

 ---------------------------------------------------------------------------------

 No NMR shielding tensors so no spin-rotation constants.
 Leave Link  601 at Wed Apr  8 12:53:14 2026, MaxMem=    33554432 cpu:         0.1
 (Enter /opt/g09/g09/l9999.exe)
 1\1\GINC-KADET27\FOpt\UB3LYP\Gen\O1P1(2)\MDOROHUN\08-Apr-2026\0\\#p UB
 3LYP/Gen Opt Pop=Full\\PO optymalizacja baza maug-cc-pV(Q+d)Z\\0,2\P,0
 .,0.,0.0024716767\O,0.,0.,1.4975283233\\Version=ES64L-G09RevD.01\HF=-4
 16.5699104\S2=0.753428\S2-1=0.\S2A=0.750007\RMSD=3.798e-09\RMSF=2.207e
 -08\Dipole=0.,0.,-0.8774874\Quadrupole=1.5982374,-0.6159731,-0.9822643
 ,0.,0.,0.\PG=C*V [C*(O1P1)]\\@


 BE LIKE A POSTAGE STAMP.  STICK TO ONE THING UNTIL
 YOU GET THERE -- JOSH BILLINGS
 Job cpu time:       0 days  0 hours  0 minutes  1.8 seconds.
 File lengths (MBytes):  RWF=      5 Int=      0 D2E=      0 Chk=      1 Scr=      1
 Normal termination of Gaussian 09 at Wed Apr  8 12:53:14 2026.
