 Entering Gaussian System, Link 0=/opt/g09/g09/g09
 Input=INPUTS/STO_3G.inp
 Output=INPUTS/STO_3G.log
 Initial command:
 /opt/g09/g09/l1.exe "/tmp/Gau-11088.inp" -scrdir="/tmp/"
 Entering Link 1 = /opt/g09/g09/l1.exe PID=     11090.
  
 Copyright (c) 1988,1990,1992,1993,1995,1998,2003,2009,2013,
            Gaussian, Inc.  All Rights Reserved.
  
 This is part of the Gaussian(R) 09 program.  It is based on
 the Gaussian(R) 03 system (copyright 2003, Gaussian, Inc.),
 the Gaussian(R) 98 system (copyright 1998, Gaussian, Inc.),
 the Gaussian(R) 94 system (copyright 1995, Gaussian, Inc.),
 the Gaussian 92(TM) system (copyright 1992, Gaussian, Inc.),
 the Gaussian 90(TM) system (copyright 1990, Gaussian, Inc.),
 the Gaussian 88(TM) system (copyright 1988, Gaussian, Inc.),
 the Gaussian 86(TM) system (copyright 1986, Carnegie Mellon
 University), and the Gaussian 82(TM) system (copyright 1983,
 Carnegie Mellon University). Gaussian is a federally registered
 trademark of Gaussian, Inc.
  
 This software contains proprietary and confidential information,
 including trade secrets, belonging to Gaussian, Inc.
  
 This software is provided under written license and may be
 used, copied, transmitted, or stored only in accord with that
 written license.
  
 The following legend is applicable only to US Government
 contracts under FAR:
  
                    RESTRICTED RIGHTS LEGEND
  
 Use, reproduction and disclosure by the US Government is
 subject to restrictions as set forth in subparagraphs (a)
 and (c) of the Commercial Computer Software - Restricted
 Rights clause in FAR 52.227-19.
  
 Gaussian, Inc.
 340 Quinnipiac St., Bldg. 40, Wallingford CT 06492
  
  
 ---------------------------------------------------------------
 Warning -- This program may not be used in any manner that
 competes with the business of Gaussian, Inc. or will provide
 assistance to any competitor of Gaussian, Inc.  The licensee
 of this program is prohibited from giving any competitor of
 Gaussian, Inc. access to this program.  By using this program,
 the user acknowledges that Gaussian, Inc. is engaged in the
 business of creating and licensing software in the field of
 computational chemistry and represents and warrants to the
 licensee that it is not a competitor of Gaussian, Inc. and that
 it will not use this program in any manner prohibited above.
 ---------------------------------------------------------------
  

 Cite this work as:
 Gaussian 09, Revision D.01,
 M. J. Frisch, G. W. Trucks, H. B. Schlegel, G. E. Scuseria, 
 M. A. Robb, J. R. Cheeseman, G. Scalmani, V. Barone, B. Mennucci, 
 G. A. Petersson, H. Nakatsuji, M. Caricato, X. Li, H. P. Hratchian, 
 A. F. Izmaylov, J. Bloino, G. Zheng, J. L. Sonnenberg, M. Hada, 
 M. Ehara, K. Toyota, R. Fukuda, J. Hasegawa, M. Ishida, T. Nakajima, 
 Y. Honda, O. Kitao, H. Nakai, T. Vreven, J. A. Montgomery, Jr., 
 J. E. Peralta, F. Ogliaro, M. Bearpark, J. J. Heyd, E. Brothers, 
 K. N. Kudin, V. N. Staroverov, T. Keith, R. Kobayashi, J. Normand, 
 K. Raghavachari, A. Rendell, J. C. Burant, S. S. Iyengar, J. Tomasi, 
 M. Cossi, N. Rega, J. M. Millam, M. Klene, J. E. Knox, J. B. Cross, 
 V. Bakken, C. Adamo, J. Jaramillo, R. Gomperts, R. E. Stratmann, 
 O. Yazyev, A. J. Austin, R. Cammi, C. Pomelli, J. W. Ochterski, 
 R. L. Martin, K. Morokuma, V. G. Zakrzewski, G. A. Voth, 
 P. Salvador, J. J. Dannenberg, S. Dapprich, A. D. Daniels, 
 O. Farkas, J. B. Foresman, J. V. Ortiz, J. Cioslowski, 
 and D. J. Fox, Gaussian, Inc., Wallingford CT, 2013.
 
 ******************************************
 Gaussian 09:  ES64L-G09RevD.01 24-Apr-2013
                 8-Apr-2026 
 ******************************************
 -----------------------------
 #p UB3LYP/STO-3G Opt Pop=Full
 -----------------------------
 1/14=-1,18=20,19=15,26=3,38=1/1,3;
 2/9=110,12=2,17=6,18=5,40=1/2;
 3/6=3,11=2,16=1,25=1,30=1,71=1,74=-5,116=2/1,2,3;
 4//1;
 5/5=2,38=5/2;
 6/7=3,28=1/1;
 7//1,2,3,16;
 1/14=-1,18=20,19=15,26=3/3(2);
 2/9=110/2;
 99//99;
 2/9=110/2;
 3/6=3,11=2,16=1,25=1,30=1,71=1,74=-5,116=2/1,2,3;
 4/5=5,16=3,69=1/1;
 5/5=2,38=5/2;
 7//1,2,3,16;
 1/14=-1,18=20,19=15,26=3/3(-5);
 2/9=110/2;
 6/7=3,19=2,28=1/1;
 99/9=1/99;
 Leave Link    1 at Wed Apr  8 12:54:00 2026, MaxMem=           0 cpu:         0.0
 (Enter /opt/g09/g09/l101.exe)
 ----------------------------
 PO optymalizacja baza STO-3G
 ----------------------------
 Symbolic Z-matrix:
 Charge =  0 Multiplicity = 2
 P                     0.        0.        0. 
 O                     0.        0.        1.5 
 
 NAtoms=      2 NQM=        2 NQMF=       0 NMMI=      0 NMMIF=      0
                NMic=       0 NMicF=      0.
                    Isotopes and Nuclear Properties:
 (Nuclear quadrupole moments (NQMom) in fm**2, nuclear magnetic moments (NMagM)
  in nuclear magnetons)

  Atom         1           2
 IAtWgt=          31          16
 AtmWgt=  30.9737634  15.9949146
 NucSpn=           1           0
 AtZEff=   0.0000000   0.0000000
 NQMom=    0.0000000   0.0000000
 NMagM=    1.1316000   0.0000000
 AtZNuc=  15.0000000   8.0000000
 Leave Link  101 at Wed Apr  8 12:54:00 2026, MaxMem=    33554432 cpu:         0.0
 (Enter /opt/g09/g09/l103.exe)

 GradGradGradGradGradGradGradGradGradGradGradGradGradGradGradGradGradGrad
 Berny optimization.
 Initialization pass.
                           ----------------------------
                           !    Initial Parameters    !
                           ! (Angstroms and Degrees)  !
 --------------------------                            --------------------------
 ! Name  Definition              Value          Derivative Info.                !
 --------------------------------------------------------------------------------
 ! R1    R(1,2)                  1.5            estimate D2E/DX2                !
 --------------------------------------------------------------------------------
 Trust Radius=3.00D-01 FncErr=1.00D-07 GrdErr=1.00D-06
 Number of steps in this run=     20 maximum allowed number of steps=    100.
 GradGradGradGradGradGradGradGradGradGradGradGradGradGradGradGradGradGrad

 Leave Link  103 at Wed Apr  8 12:54:00 2026, MaxMem=    33554432 cpu:         0.0
 (Enter /opt/g09/g09/l202.exe)
                          Input orientation:                          
 ---------------------------------------------------------------------
 Center     Atomic      Atomic             Coordinates (Angstroms)
 Number     Number       Type             X           Y           Z
 ---------------------------------------------------------------------
      1         15           0        0.000000    0.000000    0.000000
      2          8           0        0.000000    0.000000    1.500000
 ---------------------------------------------------------------------
 Stoichiometry    OP(2)
 Framework group  C*V[C*(OP)]
 Deg. of freedom     1
 Full point group                 C*V     NOp   4
 Largest Abelian subgroup         C2V     NOp   4
 Largest concise Abelian subgroup C1      NOp   1
                         Standard orientation:                         
 ---------------------------------------------------------------------
 Center     Atomic      Atomic             Coordinates (Angstroms)
 Number     Number       Type             X           Y           Z
 ---------------------------------------------------------------------
      1         15           0        0.000000    0.000000    0.521739
      2          8           0        0.000000    0.000000   -0.978261
 ---------------------------------------------------------------------
 Rotational constants (GHZ):      0.0000000     21.2944835     21.2944835
 Leave Link  202 at Wed Apr  8 12:54:00 2026, MaxMem=    33554432 cpu:         0.0
 (Enter /opt/g09/g09/l301.exe)
 Standard basis: STO-3G (5D, 7F)
 Ernie: Thresh=  0.10000D-02 Tol=  0.10000D-05 Strict=F.
 There are     8 symmetry adapted cartesian basis functions of A1  symmetry.
 There are     0 symmetry adapted cartesian basis functions of A2  symmetry.
 There are     3 symmetry adapted cartesian basis functions of B1  symmetry.
 There are     3 symmetry adapted cartesian basis functions of B2  symmetry.
 There are     8 symmetry adapted basis functions of A1  symmetry.
 There are     0 symmetry adapted basis functions of A2  symmetry.
 There are     3 symmetry adapted basis functions of B1  symmetry.
 There are     3 symmetry adapted basis functions of B2  symmetry.
    14 basis functions,    42 primitive gaussians,    14 cartesian basis functions
    12 alpha electrons       11 beta electrons
       nuclear repulsion energy        42.3341766872 Hartrees.
 IExCor=  402 DFT=T Ex+Corr=B3LYP ExCW=0 ScaHFX=  0.200000
 ScaDFX=  0.800000  0.720000  1.000000  0.810000 ScalE2=  1.000000  1.000000
 IRadAn=      0 IRanWt=     -1 IRanGd=            0 ICorTp=0 IEmpDi=  4
 NAtoms=    2 NActive=    2 NUniq=    2 SFac= 1.00D+00 NAtFMM=   60 NAOKFM=F Big=F
 Integral buffers will be    131072 words long.
 Raffenetti 2 integral format.
 Two-electron integral symmetry is turned on.
 Leave Link  301 at Wed Apr  8 12:54:00 2026, MaxMem=    33554432 cpu:         0.0
 (Enter /opt/g09/g09/l302.exe)
 NPDir=0 NMtPBC=     1 NCelOv=     1 NCel=       1 NClECP=     1 NCelD=      1
         NCelK=      1 NCelE2=     1 NClLst=     1 CellRange=     0.0.
 One-electron integrals computed using PRISM.
 NBasis=    14 RedAO= T EigKep=  6.72D-01  NBF=     8     0     3     3
 NBsUse=    14 1.00D-06 EigRej= -1.00D+00 NBFU=     8     0     3     3
 Precomputing XC quadrature grid using
 IXCGrd= 4 IRadAn=           0 IRanWt=          -1 IRanGd=           0 AccXCQ= 0.00D+00.
 Generated NRdTot=       0 NPtTot=           0 NUsed=           0 NTot=          32
 NSgBfM=    14    14    14    14    14 MxSgAt=     2 MxSgA2=     2.
 Leave Link  302 at Wed Apr  8 12:54:01 2026, MaxMem=    33554432 cpu:         0.0
 (Enter /opt/g09/g09/l303.exe)
 DipDrv:  MaxL=1.
 Leave Link  303 at Wed Apr  8 12:54:01 2026, MaxMem=    33554432 cpu:         0.0
 (Enter /opt/g09/g09/l401.exe)
 ExpMin= 1.90D-01 ExpMax= 4.68D+02 ExpMxC= 4.68D+02 IAcc=1 IRadAn=         1 AccDes= 0.00D+00
 Harris functional with IExCor=  402 and IRadAn=       1 diagonalized for initial guess.
 HarFok:  IExCor=  402 AccDes= 0.00D+00 IRadAn=         1 IDoV= 1 UseB2=F ITyADJ=14
 ICtDFT=  3500011 ScaDFX=  1.000000  1.000000  1.000000  1.000000
 FoFCou: FMM=F IPFlag=           0 FMFlag=      100000 FMFlg1=           0
         NFxFlg=           0 DoJE=T BraDBF=F KetDBF=T FulRan=T
         wScrn=  0.000000 ICntrl=     500 IOpCl=  0 I1Cent=   200000004 NGrid=           0
         NMat0=    1 NMatS0=      1 NMatT0=    0 NMatD0=    1 NMtDS0=    0 NMtDT0=    0
 Petite list used in FoFCou.
 Harris En= -411.597953536870    
 JPrj=0 DoOrth=F DoCkMO=F.
 Initial guess orbital symmetries:
 Alpha Orbitals:
       Occupied  (SG) (SG) (SG) (SG) (PI) (PI) (SG) (SG) (PI) (PI)
                 (SG) (PI)
       Virtual   (PI) (SG)
 Beta  Orbitals:
       Occupied  (SG) (SG) (SG) (SG) (PI) (PI) (SG) (SG) (PI) (PI)
                 (SG)
       Virtual   (PI) (PI) (SG)
 Initial guess <Sx>= 0.0000 <Sy>= 0.0000 <Sz>= 0.5000 <S**2>= 0.7500 S= 0.5000
 Leave Link  401 at Wed Apr  8 12:54:01 2026, MaxMem=    33554432 cpu:         0.0
 (Enter /opt/g09/g09/l502.exe)
 UHF open shell SCF:
 Using DIIS extrapolation, IDIIS=  1040.
 Integral symmetry usage will be decided dynamically.
 Keep R1 and R2 ints in memory in symmetry-blocked form, NReq=885308.
 IVT=       20175 IEndB=       20175 NGot=    33554432 MDV=    33529916
 LenX=    33529916 LenY=    33529034
 Requested convergence on RMS density matrix=1.00D-08 within 128 cycles.
 Requested convergence on MAX density matrix=1.00D-06.
 Requested convergence on             energy=1.00D-06.
 No special actions if energy rises.
 FoFCou: FMM=F IPFlag=           0 FMFlag=           0 FMFlg1=           0
         NFxFlg=           0 DoJE=F BraDBF=F KetDBF=F FulRan=T
         wScrn=  0.000000 ICntrl=     600 IOpCl=  0 I1Cent=           0 NGrid=           0
         NMat0=    1 NMatS0=    105 NMatT0=    0 NMatD0=    1 NMtDS0=    0 NMtDT0=    0
 Petite list used in FoFCou.
 Integral accuracy reduced to 1.0D-05 until final iterations.

 Cycle   1  Pass 0  IDiag  1:
 E= -411.440916699134    
 DIIS: error= 7.68D-02 at cycle   1 NSaved=   1.
 NSaved= 1 IEnMin= 1 EnMin= -411.440916699134     IErMin= 1 ErrMin= 7.68D-02
 ErrMax= 7.68D-02  0.00D+00 EMaxC= 1.00D-01 BMatC= 3.65D-01 BMatP= 3.65D-01
 IDIUse=3 WtCom= 2.32D-01 WtEn= 7.68D-01
 Coeff-Com:  0.100D+01
 Coeff-En:   0.100D+01
 Coeff:      0.100D+01
 Gap=     0.026 Goal=   None    Shift=    0.000
 Gap=     0.011 Goal=   None    Shift=    0.000
 GapD=    0.011 DampG=0.250 DampE=0.500 DampFc=0.2500 IDamp=-1.
 Damping current iteration by 2.50D-01
 RMSDP=1.05D-01 MaxDP=7.44D-01              OVMax= 0.00D+00

 Cycle   2  Pass 0  IDiag  1:
 E= -411.484135310548     Delta-E=       -0.043218611414 Rises=F Damp=T
 DIIS: error= 4.66D-03 at cycle   2 NSaved=   2.
 NSaved= 2 IEnMin= 2 EnMin= -411.484135310548     IErMin= 2 ErrMin= 4.66D-03
 ErrMax= 4.66D-03  0.00D+00 EMaxC= 1.00D-01 BMatC= 1.52D-03 BMatP= 3.65D-01
 IDIUse=3 WtCom= 9.53D-01 WtEn= 4.66D-02
 Coeff-Com: -0.662D-03 0.100D+01
 Coeff-En:   0.310D+00 0.690D+00
 Coeff:      0.138D-01 0.986D+00
 Gap=     0.086 Goal=   None    Shift=    0.000
 Gap=     0.100 Goal=   None    Shift=    0.000
 RMSDP=1.43D-02 MaxDP=1.09D-01 DE=-4.32D-02 OVMax= 0.00D+00

 Cycle   3  Pass 0  IDiag  1:
 E= -411.590059617011     Delta-E=       -0.105924306462 Rises=F Damp=F
 DIIS: error= 3.75D-03 at cycle   3 NSaved=   3.
 NSaved= 3 IEnMin= 3 EnMin= -411.590059617011     IErMin= 3 ErrMin= 3.75D-03
 ErrMax= 3.75D-03  0.00D+00 EMaxC= 1.00D-01 BMatC= 7.69D-04 BMatP= 1.52D-03
 IDIUse=3 WtCom= 9.63D-01 WtEn= 3.75D-02
 Coeff-Com: -0.408D-01 0.855D-01 0.955D+00
 Coeff-En:   0.000D+00 0.000D+00 0.100D+01
 Coeff:     -0.392D-01 0.823D-01 0.957D+00
 Gap=     0.081 Goal=   None    Shift=    0.000
 Gap=     0.259 Goal=   None    Shift=    0.000
 RMSDP=1.40D-03 MaxDP=8.57D-03 DE=-1.06D-01 OVMax= 0.00D+00

 Cycle   4  Pass 0  IDiag  1:
 E= -411.590352113407     Delta-E=       -0.000292496396 Rises=F Damp=F
 DIIS: error= 6.28D-04 at cycle   4 NSaved=   4.
 NSaved= 4 IEnMin= 4 EnMin= -411.590352113407     IErMin= 4 ErrMin= 6.28D-04
 ErrMax= 6.28D-04  0.00D+00 EMaxC= 1.00D-01 BMatC= 1.48D-05 BMatP= 7.69D-04
 IDIUse=3 WtCom= 9.94D-01 WtEn= 6.28D-03
 Coeff-Com: -0.330D-02-0.214D-01-0.741D-01 0.110D+01
 Coeff-En:   0.000D+00 0.000D+00 0.000D+00 0.100D+01
 Coeff:     -0.327D-02-0.213D-01-0.736D-01 0.110D+01
 Gap=     0.082 Goal=   None    Shift=    0.000
 Gap=     0.260 Goal=   None    Shift=    0.000
 RMSDP=2.98D-04 MaxDP=2.68D-03 DE=-2.92D-04 OVMax= 0.00D+00

 Cycle   5  Pass 0  IDiag  1:
 E= -411.590358046104     Delta-E=       -0.000005932698 Rises=F Damp=F
 DIIS: error= 2.36D-04 at cycle   5 NSaved=   5.
 NSaved= 5 IEnMin= 5 EnMin= -411.590358046104     IErMin= 5 ErrMin= 2.36D-04
 ErrMax= 2.36D-04  0.00D+00 EMaxC= 1.00D-01 BMatC= 2.79D-06 BMatP= 1.48D-05
 IDIUse=3 WtCom= 9.98D-01 WtEn= 2.36D-03
 Coeff-Com:  0.236D-02-0.180D-02 0.149D-01-0.336D-01 0.102D+01
 Coeff-En:   0.000D+00 0.000D+00 0.000D+00 0.882D-01 0.912D+00
 Coeff:      0.235D-02-0.179D-02 0.148D-01-0.333D-01 0.102D+01
 Gap=     0.082 Goal=   None    Shift=    0.000
 Gap=     0.259 Goal=   None    Shift=    0.000
 RMSDP=4.87D-05 MaxDP=4.91D-04 DE=-5.93D-06 OVMax= 0.00D+00

 Cycle   6  Pass 0  IDiag  1:
 E= -411.590358803140     Delta-E=       -0.000000757035 Rises=F Damp=F
 DIIS: error= 1.05D-04 at cycle   6 NSaved=   6.
 NSaved= 6 IEnMin= 6 EnMin= -411.590358803140     IErMin= 6 ErrMin= 1.05D-04
 ErrMax= 1.05D-04  0.00D+00 EMaxC= 1.00D-01 BMatC= 5.22D-07 BMatP= 2.79D-06
 IDIUse=3 WtCom= 9.99D-01 WtEn= 1.05D-03
 Coeff-Com:  0.382D-04-0.405D-03-0.783D-02 0.428D-01-0.767D+00 0.173D+01
 Coeff-En:   0.000D+00 0.000D+00 0.000D+00 0.000D+00 0.000D+00 0.100D+01
 Coeff:      0.381D-04-0.404D-03-0.782D-02 0.428D-01-0.766D+00 0.173D+01
 Gap=     0.082 Goal=   None    Shift=    0.000
 Gap=     0.259 Goal=   None    Shift=    0.000
 RMSDP=3.50D-05 MaxDP=3.91D-04 DE=-7.57D-07 OVMax= 0.00D+00

 Cycle   7  Pass 0  IDiag  1:
 E= -411.590358979643     Delta-E=       -0.000000176504 Rises=F Damp=F
 DIIS: error= 7.72D-06 at cycle   7 NSaved=   7.
 NSaved= 7 IEnMin= 7 EnMin= -411.590358979643     IErMin= 7 ErrMin= 7.72D-06
 ErrMax= 7.72D-06  0.00D+00 EMaxC= 1.00D-01 BMatC= 1.52D-09 BMatP= 5.22D-07
 IDIUse=1 WtCom= 1.00D+00 WtEn= 0.00D+00
 Coeff-Com: -0.521D-05 0.154D-03 0.362D-02-0.165D-01 0.313D+00-0.744D+00
 Coeff-Com:  0.144D+01
 Coeff:     -0.521D-05 0.154D-03 0.362D-02-0.165D-01 0.313D+00-0.744D+00
 Coeff:      0.144D+01
 Gap=     0.082 Goal=   None    Shift=    0.000
 Gap=     0.259 Goal=   None    Shift=    0.000
 RMSDP=5.87D-06 MaxDP=5.99D-05 DE=-1.77D-07 OVMax= 0.00D+00

 Initial convergence to 1.0D-05 achieved.  Increase integral accuracy.
 Cycle   8  Pass 1  IDiag  1:
 E= -411.590314695783     Delta-E=        0.000044283860 Rises=F Damp=F
 DIIS: error= 2.26D-05 at cycle   1 NSaved=   1.
 NSaved= 1 IEnMin= 1 EnMin= -411.590314695783     IErMin= 1 ErrMin= 2.26D-05
 ErrMax= 2.26D-05  0.00D+00 EMaxC= 1.00D-01 BMatC= 2.12D-08 BMatP= 2.12D-08
 IDIUse=1 WtCom= 1.00D+00 WtEn= 0.00D+00
 Coeff-Com:  0.100D+01
 Coeff:      0.100D+01
 Gap=     0.082 Goal=   None    Shift=    0.000
 Gap=     0.259 Goal=   None    Shift=    0.000
 RMSDP=5.87D-06 MaxDP=5.99D-05 DE= 4.43D-05 OVMax= 0.00D+00

 Cycle   9  Pass 1  IDiag  1:
 E= -411.590314701782     Delta-E=       -0.000000005999 Rises=F Damp=F
 DIIS: error= 5.76D-06 at cycle   2 NSaved=   2.
 NSaved= 2 IEnMin= 2 EnMin= -411.590314701782     IErMin= 2 ErrMin= 5.76D-06
 ErrMax= 5.76D-06  0.00D+00 EMaxC= 1.00D-01 BMatC= 9.73D-10 BMatP= 2.12D-08
 IDIUse=1 WtCom= 1.00D+00 WtEn= 0.00D+00
 Coeff-Com: -0.147D-02 0.100D+01
 Coeff:     -0.147D-02 0.100D+01
 Gap=     0.082 Goal=   None    Shift=    0.000
 Gap=     0.259 Goal=   None    Shift=    0.000
 RMSDP=4.89D-06 MaxDP=5.42D-05 DE=-6.00D-09 OVMax= 0.00D+00

 Cycle  10  Pass 1  IDiag  1:
 E= -411.590314701495     Delta-E=        0.000000000287 Rises=F Damp=F
 DIIS: error= 1.03D-05 at cycle   3 NSaved=   3.
 NSaved= 3 IEnMin= 2 EnMin= -411.590314701782     IErMin= 2 ErrMin= 5.76D-06
 ErrMax= 1.03D-05  0.00D+00 EMaxC= 1.00D-01 BMatC= 4.52D-09 BMatP= 9.73D-10
 IDIUse=1 WtCom= 1.00D+00 WtEn= 0.00D+00
 Coeff-Com: -0.887D-02 0.729D+00 0.280D+00
 Coeff:     -0.887D-02 0.729D+00 0.280D+00
 Gap=     0.082 Goal=   None    Shift=    0.000
 Gap=     0.259 Goal=   None    Shift=    0.000
 RMSDP=3.14D-06 MaxDP=2.57D-05 DE= 2.87D-10 OVMax= 0.00D+00

 Cycle  11  Pass 1  IDiag  1:
 E= -411.590314702999     Delta-E=       -0.000000001505 Rises=F Damp=F
 DIIS: error= 3.67D-06 at cycle   4 NSaved=   4.
 NSaved= 4 IEnMin= 4 EnMin= -411.590314702999     IErMin= 4 ErrMin= 3.67D-06
 ErrMax= 3.67D-06  0.00D+00 EMaxC= 1.00D-01 BMatC= 2.77D-10 BMatP= 9.73D-10
 IDIUse=1 WtCom= 1.00D+00 WtEn= 0.00D+00
 Coeff-Com: -0.769D-02-0.693D+00 0.462D-01 0.165D+01
 Coeff:     -0.769D-02-0.693D+00 0.462D-01 0.165D+01
 Gap=     0.082 Goal=   None    Shift=    0.000
 Gap=     0.259 Goal=   None    Shift=    0.000
 RMSDP=4.19D-06 MaxDP=4.39D-05 DE=-1.50D-09 OVMax= 0.00D+00

 Cycle  12  Pass 1  IDiag  1:
 E= -411.590314703655     Delta-E=       -0.000000000655 Rises=F Damp=F
 DIIS: error= 1.32D-06 at cycle   5 NSaved=   5.
 NSaved= 5 IEnMin= 5 EnMin= -411.590314703655     IErMin= 5 ErrMin= 1.32D-06
 ErrMax= 1.32D-06  0.00D+00 EMaxC= 1.00D-01 BMatC= 4.01D-11 BMatP= 2.77D-10
 IDIUse=1 WtCom= 1.00D+00 WtEn= 0.00D+00
 Coeff-Com:  0.666D-02 0.217D+00-0.184D+00-0.947D+00 0.191D+01
 Coeff:      0.666D-02 0.217D+00-0.184D+00-0.947D+00 0.191D+01
 Gap=     0.082 Goal=   None    Shift=    0.000
 Gap=     0.259 Goal=   None    Shift=    0.000
 RMSDP=3.14D-06 MaxDP=2.97D-05 DE=-6.55D-10 OVMax= 0.00D+00

 Cycle  13  Pass 1  IDiag  1:
 E= -411.590314703829     Delta-E=       -0.000000000174 Rises=F Damp=F
 DIIS: error= 2.94D-07 at cycle   6 NSaved=   6.
 NSaved= 6 IEnMin= 6 EnMin= -411.590314703829     IErMin= 6 ErrMin= 2.94D-07
 ErrMax= 2.94D-07  0.00D+00 EMaxC= 1.00D-01 BMatC= 1.55D-12 BMatP= 4.01D-11
 IDIUse=1 WtCom= 1.00D+00 WtEn= 0.00D+00
 Coeff-Com: -0.175D-02-0.288D-01 0.570D-01 0.254D+00-0.776D+00 0.150D+01
 Coeff:     -0.175D-02-0.288D-01 0.570D-01 0.254D+00-0.776D+00 0.150D+01
 Gap=     0.082 Goal=   None    Shift=    0.000
 Gap=     0.259 Goal=   None    Shift=    0.000
 RMSDP=5.39D-07 MaxDP=5.46D-06 DE=-1.74D-10 OVMax= 0.00D+00

 Cycle  14  Pass 1  IDiag  1:
 E= -411.590314703834     Delta-E=       -0.000000000005 Rises=F Damp=F
 DIIS: error= 4.92D-08 at cycle   7 NSaved=   7.
 NSaved= 7 IEnMin= 7 EnMin= -411.590314703834     IErMin= 7 ErrMin= 4.92D-08
 ErrMax= 4.92D-08  0.00D+00 EMaxC= 1.00D-01 BMatC= 8.89D-14 BMatP= 1.55D-12
 IDIUse=1 WtCom= 1.00D+00 WtEn= 0.00D+00
 Coeff-Com:  0.317D-04-0.355D-02 0.273D-02-0.609D-02 0.368D-01-0.183D+00
 Coeff-Com:  0.115D+01
 Coeff:      0.317D-04-0.355D-02 0.273D-02-0.609D-02 0.368D-01-0.183D+00
 Coeff:      0.115D+01
 Gap=     0.082 Goal=   None    Shift=    0.000
 Gap=     0.259 Goal=   None    Shift=    0.000
 RMSDP=3.39D-08 MaxDP=2.72D-07 DE=-4.60D-12 OVMax= 0.00D+00

 Cycle  15  Pass 1  IDiag  1:
 E= -411.590314703834     Delta-E=        0.000000000000 Rises=F Damp=F
 DIIS: error= 2.88D-09 at cycle   8 NSaved=   8.
 NSaved= 8 IEnMin= 7 EnMin= -411.590314703834     IErMin= 8 ErrMin= 2.88D-09
 ErrMax= 2.88D-09  0.00D+00 EMaxC= 1.00D-01 BMatC= 2.95D-16 BMatP= 8.89D-14
 IDIUse=1 WtCom= 1.00D+00 WtEn= 0.00D+00
 Coeff-Com:  0.244D-04 0.206D-03-0.304D-03-0.271D-02 0.831D-02-0.188D-01
 Coeff-Com:  0.163D-01 0.997D+00
 Coeff:      0.244D-04 0.206D-03-0.304D-03-0.271D-02 0.831D-02-0.188D-01
 Coeff:      0.163D-01 0.997D+00
 Gap=     0.082 Goal=   None    Shift=    0.000
 Gap=     0.259 Goal=   None    Shift=    0.000
 RMSDP=1.52D-09 MaxDP=1.75D-08 DE= 5.68D-14 OVMax= 0.00D+00

 SCF Done:  E(UB3LYP) =  -411.590314704     A.U. after   15 cycles
            NFock= 15  Conv=0.15D-08     -V/T= 2.0127
 <Sx>= 0.0000 <Sy>= 0.0000 <Sz>= 0.5000 <S**2>= 0.7503 S= 0.5001
 <L.S>= 0.000000000000E+00
 KE= 4.064198902313D+02 PE=-1.063470662687D+03 EE= 2.031262810646D+02
 Annihilation of the first spin contaminant:
 S**2 before annihilation     0.7503,   after     0.7500
 Leave Link  502 at Wed Apr  8 12:54:01 2026, MaxMem=    33554432 cpu:         0.1
 (Enter /opt/g09/g09/l601.exe)
 Copying SCF densities to generalized density rwf, IOpCl= 1 IROHF=0.

 **********************************************************************

            Population analysis using the SCF density.

 **********************************************************************

 Orbital symmetries:
 Alpha Orbitals:
       Occupied  (SG) (SG) (SG) (PI) (SG) (PI) (SG) (SG) (PI) (PI)
                 (SG) (PI)
       Virtual   (PI) (SG)
 Beta  Orbitals:
       Occupied  (SG) (SG) (SG) (PI) (SG) (PI) (SG) (SG) (PI) (SG)
                 (PI)
       Virtual   (PI) (PI) (SG)
 Unable to determine electronic state:  partially filled degenerate orbitals.
 Alpha  occ. eigenvalues --  -76.03876 -18.83466  -6.24446  -4.36552  -4.36426
 Alpha  occ. eigenvalues --   -4.36080  -0.92707  -0.42727  -0.26055  -0.23763
 Alpha  occ. eigenvalues --   -0.22693  -0.02833
 Alpha virt. eigenvalues --    0.05331   0.37894
  Beta  occ. eigenvalues --  -76.03492 -18.82835  -6.23922  -4.36281  -4.36181
  Beta  occ. eigenvalues --   -4.34461  -0.90472  -0.39618  -0.22726  -0.21250
  Beta  occ. eigenvalues --   -0.19234
  Beta virt. eigenvalues --    0.06702   0.10472   0.39743
     Alpha Molecular Orbital Coefficients:
                           1         2         3         4         5
                           O         O         O         O         O
     Eigenvalues --   -76.03876 -18.83466  -6.24446  -4.36552  -4.36426
   1 1   P  1S          0.99383  -0.00019  -0.35588   0.00000  -0.00746
   2        2S          0.01860   0.00047   1.03923   0.00000   0.02224
   3        2PX         0.00000   0.00000   0.00000   0.00000   0.00000
   4        2PY         0.00000   0.00000   0.00000   0.97890   0.00000
   5        2PZ        -0.00020  -0.00102  -0.01793   0.00000   0.97673
   6        3S         -0.00292  -0.00573   0.06216   0.00000  -0.00720
   7        3PX         0.00000   0.00000   0.00000   0.00000   0.00000
   8        3PY         0.00000   0.00000   0.00000   0.07161   0.00000
   9        3PZ         0.00047   0.00704  -0.00824   0.00000   0.08074
  10 2   O  1S         -0.00008   0.99365   0.00085   0.00000  -0.00049
  11        2S          0.00077   0.02767  -0.01213   0.00000   0.01861
  12        2PX         0.00000   0.00000   0.00000   0.00000   0.00000
  13        2PY         0.00000   0.00000   0.00000  -0.00518   0.00000
  14        2PZ         0.00041   0.00446  -0.00419   0.00000   0.00518
                           6         7         8         9        10
                           O         O         O         O         O
     Eigenvalues --    -4.36080  -0.92707  -0.42727  -0.26055  -0.23763
   1 1   P  1S          0.00000   0.03457   0.08652   0.00000   0.00000
   2        2S          0.00000  -0.12346  -0.29537   0.00000   0.00000
   3        2PX         0.97924   0.00000   0.00000  -0.18370   0.00000
   4        2PY         0.00000   0.00000   0.00000   0.00000  -0.19416
   5        2PZ         0.00000   0.08547  -0.02320   0.00000   0.00000
   6        3S          0.00000   0.23791   0.90366   0.00000   0.00000
   7        3PX         0.07055   0.00000   0.00000   0.53009   0.00000
   8        3PY         0.00000   0.00000   0.00000   0.00000   0.56126
   9        3PZ         0.00000  -0.12766   0.06051   0.00000   0.00000
  10 2   O  1S          0.00000  -0.23182   0.11728   0.00000   0.00000
  11        2S          0.00000   0.84234  -0.54949   0.00000   0.00000
  12        2PX        -0.00503   0.00000   0.00000   0.78440   0.00000
  13        2PY         0.00000   0.00000   0.00000   0.00000   0.76158
  14        2PZ         0.00000   0.19457   0.28598   0.00000   0.00000
                          11        12        13        14
                           O         O         V         V
     Eigenvalues --    -0.22693  -0.02833   0.05331   0.37894
   1 1   P  1S         -0.03163   0.00000   0.00000  -0.03072
   2        2S          0.10208   0.00000   0.00000   0.09368
   3        2PX         0.00000  -0.28716   0.00000   0.00000
   4        2PY         0.00000   0.00000  -0.28140   0.00000
   5        2PZ         0.19845   0.00000   0.00000  -0.29661
   6        3S         -0.41895   0.00000   0.00000  -0.51623
   7        3PX         0.00000   0.90179   0.00000   0.00000
   8        3PY         0.00000   0.00000   0.88265   0.00000
   9        3PZ        -0.51534   0.00000   0.00000   1.11053
  10 2   O  1S          0.05584   0.00000   0.00000  -0.09286
  11        2S         -0.27127   0.00000   0.00000   0.63670
  12        2PX         0.00000  -0.63895   0.00000   0.00000
  13        2PY         0.00000   0.00000  -0.66598   0.00000
  14        2PZ         0.69960   0.00000   0.00000   0.79858
     Beta Molecular Orbital Coefficients:
                           1         2         3         4         5
                           O         O         O         O         O
     Eigenvalues --   -76.03492 -18.82835  -6.23922  -4.36281  -4.36181
   1 1   P  1S          0.99385  -0.00018  -0.35589   0.00000  -0.00743
   2        2S          0.01857   0.00046   1.03937   0.00000   0.02214
   3        2PX         0.00000   0.00000   0.00000   0.00000   0.00000
   4        2PY         0.00000   0.00000   0.00000   0.97898   0.00000
   5        2PZ        -0.00020  -0.00100  -0.01785   0.00000   0.97680
   6        3S         -0.00291  -0.00564   0.06170   0.00000  -0.00720
   7        3PX         0.00000   0.00000   0.00000   0.00000   0.00000
   8        3PY         0.00000   0.00000   0.00000   0.07137   0.00000
   9        3PZ         0.00046   0.00693  -0.00817   0.00000   0.08051
  10 2   O  1S         -0.00008   0.99374   0.00082   0.00000  -0.00047
  11        2S          0.00077   0.02730  -0.01195   0.00000   0.01850
  12        2PX         0.00000   0.00000   0.00000   0.00000   0.00000
  13        2PY         0.00000   0.00000   0.00000  -0.00514   0.00000
  14        2PZ         0.00041   0.00441  -0.00409   0.00000   0.00513
                           6         7         8         9        10
                           O         O         O         O         O
     Eigenvalues --    -4.34461  -0.90472  -0.39618  -0.22726  -0.21250
   1 1   P  1S          0.00000   0.03484   0.08472   0.00000  -0.03445
   2        2S          0.00000  -0.12444  -0.28961   0.00000   0.11185
   3        2PX         0.97928   0.00000   0.00000   0.00000   0.00000
   4        2PY         0.00000   0.00000   0.00000  -0.19187   0.00000
   5        2PZ         0.00000   0.08805  -0.02167   0.00000   0.19916
   6        3S          0.00000   0.24073   0.88157   0.00000  -0.44717
   7        3PX         0.07045   0.00000   0.00000   0.00000   0.00000
   8        3PY         0.00000   0.00000   0.00000   0.55447   0.00000
   9        3PZ         0.00000  -0.13534   0.06069   0.00000  -0.51954
  10 2   O  1S          0.00000  -0.23004   0.11898   0.00000   0.05466
  11        2S          0.00000   0.83455  -0.55412   0.00000  -0.26438
  12        2PX        -0.00505   0.00000   0.00000   0.00000   0.00000
  13        2PY         0.00000   0.00000   0.00000   0.76668   0.00000
  14        2PZ         0.00000   0.20093   0.31721   0.00000   0.68579
                          11        12        13        14
                           O         V         V         V
     Eigenvalues --    -0.19234   0.06702   0.10472   0.39743
   1 1   P  1S          0.00000   0.00000   0.00000  -0.03186
   2        2S          0.00000   0.00000   0.00000   0.09760
   3        2PX        -0.19119   0.00000  -0.28210   0.00000
   4        2PY         0.00000  -0.28269   0.00000   0.00000
   5        2PZ         0.00000   0.00000   0.00000  -0.29526
   6        3S          0.00000   0.00000   0.00000  -0.52934
   7        3PX         0.55390   0.00000   0.88737   0.00000
   8        3PY         0.00000   0.88695   0.00000   0.00000
   9        3PZ         0.00000   0.00000   0.00000   1.10767
  10 2   O  1S          0.00000   0.00000   0.00000  -0.09485
  11        2S          0.00000   0.00000   0.00000   0.64580
  12        2PX         0.76712   0.00000  -0.65960   0.00000
  13        2PY         0.00000  -0.66011   0.00000   0.00000
  14        2PZ         0.00000   0.00000   0.00000   0.79719
     Alpha Density Matrix:
                           1         2         3         4         5
   1 1   P  1S          1.12409
   2        2S         -0.38457   1.19374
   3        2PX         0.00000   0.00000   1.07512
   4        2PY         0.00000   0.00000   0.00000   0.99594
   5        2PZ        -0.00644   0.01964   0.00000   0.00000   1.00155
   6        3S          0.07469  -0.27467   0.00000   0.00000  -0.09192
   7        3PX         0.00000   0.00000  -0.28725   0.00000   0.00000
   8        3PY         0.00000   0.00000   0.00000  -0.03887   0.00000
   9        3PZ         0.01992  -0.06148   0.00000   0.00000  -0.03558
  10 2   O  1S         -0.00020   0.00102   0.00000   0.00000  -0.01296
  11        2S         -0.00490   0.01845   0.00000   0.00000   0.04927
  12        2PX         0.00000   0.00000   0.03447   0.00000   0.00000
  13        2PY         0.00000   0.00000   0.00000  -0.15294   0.00000
  14        2PZ         0.01120  -0.04130   0.00000   0.00000   0.15396
                           6         7         8         9        10
   6        3S          1.05268
   7        3PX         0.00000   1.09921
   8        3PY         0.00000   0.00000   0.32014
   9        3PZ         0.23908   0.00000   0.00000   0.29217
  10 2   O  1S          0.02179   0.00000   0.00000   0.01486   1.05796
  11        2S         -0.18355   0.00000   0.00000   0.00081  -0.24738
  12        2PX         0.00000  -0.16076   0.00000   0.00000   0.00000
  13        2PY         0.00000   0.00000   0.42707   0.00000   0.00000
  14        2PZ         0.01129   0.00000   0.00000  -0.36758   0.03192
                          11        12        13        14
  11        2S          1.08632
  12        2PX         0.00000   1.02357
  13        2PY         0.00000   0.00000   0.58003
  14        2PZ        -0.18276   0.00000   0.00000   0.60915
     Beta Density Matrix:
                           1         2         3         4         5
   1 1   P  1S          1.12402
   2        2S         -0.38434   1.19299
   3        2PX         0.00000   0.00000   0.99554
   4        2PY         0.00000   0.00000   0.00000   0.99521
   5        2PZ        -0.00673   0.02067   0.00000   0.00000   1.00235
   6        3S          0.07368  -0.27137   0.00000   0.00000  -0.09509
   7        3PX         0.00000   0.00000  -0.03692   0.00000   0.00000
   8        3PY         0.00000   0.00000   0.00000  -0.03652   0.00000
   9        3PZ         0.02110  -0.06554   0.00000   0.00000  -0.03792
  10 2   O  1S         -0.00037   0.00158   0.00000   0.00000  -0.01342
  11        2S         -0.00388   0.01507   0.00000   0.00000   0.05110
  12        2PX         0.00000   0.00000  -0.15161   0.00000   0.00000
  13        2PY         0.00000   0.00000   0.00000  -0.15214   0.00000
  14        2PZ         0.01207  -0.04429   0.00000   0.00000   0.15247
                           6         7         8         9        10
   6        3S          1.03897
   7        3PX         0.00000   0.31177
   8        3PY         0.00000   0.00000   0.31253
   9        3PZ         0.25212   0.00000   0.00000   0.29852
  10 2   O  1S          0.01952   0.00000   0.00000   0.01680   1.05759
  11        2S         -0.17039   0.00000   0.00000  -0.00745  -0.24525
  12        2PX         0.00000   0.42456   0.00000   0.00000   0.00000
  13        2PY         0.00000   0.00000   0.42473   0.00000   0.00000
  14        2PZ         0.02103   0.00000   0.00000  -0.36376   0.03338
                          11        12        13        14
  11        2S          1.07465
  12        2PX         0.00000   0.58850
  13        2PY         0.00000   0.00000   0.58782
  14        2PZ        -0.18913   0.00000   0.00000   0.61136
    Full Mulliken population analysis:
                           1         2         3         4         5
   1 1   P  1S          2.24812
   2        2S         -0.25036   2.38674
   3        2PX         0.00000   0.00000   2.07066
   4        2PY         0.00000   0.00000   0.00000   1.99114
   5        2PZ         0.00000   0.00000   0.00000   0.00000   2.00390
   6        3S          0.00207  -0.13550   0.00000   0.00000   0.00000
   7        3PX         0.00000   0.00000  -0.08507   0.00000   0.00000
   8        3PY         0.00000   0.00000   0.00000  -0.01978   0.00000
   9        3PZ         0.00000   0.00000   0.00000   0.00000  -0.01929
  10 2   O  1S          0.00000   0.00000   0.00000   0.00000   0.00000
  11        2S         -0.00003   0.00092   0.00000   0.00000  -0.00230
  12        2PX         0.00000   0.00000  -0.00088   0.00000   0.00000
  13        2PY         0.00000   0.00000   0.00000  -0.00230   0.00000
  14        2PZ         0.00013  -0.00421   0.00000   0.00000  -0.01128
                           6         7         8         9        10
   6        3S          2.09166
   7        3PX         0.00000   1.41098
   8        3PY         0.00000   0.00000   0.63267
   9        3PZ         0.00000   0.00000   0.00000   0.59070
  10 2   O  1S          0.00113   0.00000   0.00000  -0.00146   2.11555
  11        2S         -0.10032   0.00000   0.00000   0.00262  -0.11661
  12        2PX         0.00000   0.03910   0.00000   0.00000   0.00000
  13        2PY         0.00000   0.00000   0.12625   0.00000   0.00000
  14        2PZ         0.00782   0.00000   0.00000   0.21759   0.00000
                          11        12        13        14
  11        2S          2.16098
  12        2PX         0.00000   1.61206
  13        2PY         0.00000   0.00000   1.16785
  14        2PZ         0.00000   0.00000   0.00000   1.22050
     Gross orbital populations:
                         Total     Alpha     Beta      Spin
   1 1   P  1S          1.99993   0.99997   0.99997   0.00000
   2        2S          1.99759   0.99884   0.99875   0.00009
   3        2PX         1.98471   1.00000   0.98471   0.01529
   4        2PY         1.96906   0.98458   0.98448   0.00010
   5        2PZ         1.97103   0.98542   0.98561  -0.00020
   6        3S          1.86686   0.93687   0.92999   0.00688
   7        3PX         1.36501   1.00000   0.36501   0.63499
   8        3PY         0.73914   0.37324   0.36590   0.00734
   9        3PZ         0.79016   0.39120   0.39896  -0.00777
  10 2   O  1S          1.99861   0.99932   0.99930   0.00002
  11        2S          1.94526   0.97478   0.97048   0.00431
  12        2PX         1.65028   1.00000   0.65028   0.34972
  13        2PY         1.29180   0.64218   0.64962  -0.00744
  14        2PZ         1.43055   0.71361   0.71695  -0.00334
          Condensed to atoms (all electrons):
               1          2
     1  P   14.410702   0.272787
     2  O    0.272787   8.043723
          Atomic-Atomic Spin Densities.
               1          2
     1  P    0.749581  -0.092845
     2  O   -0.092845   0.436108
 Mulliken charges and spin densities:
               1          2
     1  P    0.316510   0.656737
     2  O   -0.316510   0.343263
 Sum of Mulliken charges =   0.00000   1.00000
 Mulliken charges and spin densities with hydrogens summed into heavy atoms:
               1          2
     1  P    0.316510   0.656737
     2  O   -0.316510   0.343263
 Electronic spatial extent (au):  <R**2>=             75.5596
 Charge=              0.0000 electrons
 Dipole moment (field-independent basis, Debye):
    X=              0.0000    Y=              0.0000    Z=              1.0691  Tot=              1.0691
 Quadrupole moment (field-independent basis, Debye-Ang):
   XX=            -14.9861   YY=            -13.3306   ZZ=            -16.9281
   XY=              0.0000   XZ=              0.0000   YZ=              0.0000
 Traceless Quadrupole moment (field-independent basis, Debye-Ang):
   XX=              0.0955   YY=              1.7510   ZZ=             -1.8465
   XY=              0.0000   XZ=              0.0000   YZ=              0.0000
 Octapole moment (field-independent basis, Debye-Ang**2):
  XXX=              0.0000  YYY=              0.0000  ZZZ=             -1.7168  XYY=              0.0000
  XXY=              0.0000  XXZ=             -1.5072  XZZ=              0.0000  YZZ=              0.0000
  YYZ=             -0.9058  XYZ=              0.0000
 Hexadecapole moment (field-independent basis, Debye-Ang**3):
 XXXX=            -12.6397 YYYY=            -10.3135 ZZZZ=            -57.4944 XXXY=              0.0000
 XXXZ=              0.0000 YYYX=              0.0000 YYYZ=              0.0000 ZZZX=              0.0000
 ZZZY=              0.0000 XXYY=             -3.8255 XXZZ=            -11.6222 YYZZ=            -10.5268
 XXYZ=              0.0000 YYXZ=              0.0000 ZZXY=              0.0000
 N-N= 4.233417668720D+01 E-N=-1.063470662672D+03  KE= 4.064198902313D+02
 Symmetry A1   KE= 3.407752701860D+02
 Symmetry A2   KE= 0.000000000000D+00
 Symmetry B1   KE= 3.411779879918D+01
 Symmetry B2   KE= 3.152682124606D+01
 Orbital energies and kinetic energies (alpha):
                                 1                 2
   1         O               -76.038758        102.651578
   2         O               -18.834663         28.627768
   3         O                -6.244457         17.991334
   4         O                -4.365522         13.571275
   5         O                -4.364255         13.529824
   6         O                -4.360801         13.579653
   7         O                -0.927073          2.696228
   8         O                -0.427271          2.503871
   9         O                -0.260555          2.205236
  10         O                -0.237628          2.189523
  11         O                -0.226933          2.394779
  12         O                -0.028328          2.561573
  13         V                 0.053315          2.585665
  14         V                 0.378937          3.677687
 Orbital energies and kinetic energies (beta):
                                 1                 2
   1         O               -76.034917        102.653928
   2         O               -18.828349         28.632874
   3         O                -6.239217         17.993807
   4         O                -4.362806         13.573208
   5         O                -4.361807         13.531479
   6         O                -4.344613         13.580527
   7         O                -0.904716          2.681081
   8         O                -0.396180          2.503516
   9         O                -0.227262          2.192816
  10         O                -0.212498          2.383204
  11         O                -0.192338          2.190809
  12         V                 0.067022          2.580439
  13         V                 0.104718          2.575126
  14         V                 0.397434          3.693182
 Total kinetic energy from orbitals= 4.064198902313D+02
                          Isotropic Fermi Contact Couplings
        Atom                 a.u.       MegaHertz       Gauss      10(-4) cm-1
     1  P(31)              0.03306      59.86891      21.36271      19.97012
     2  O(17)              0.02656     -16.09823      -5.74425      -5.36979
 --------------------------------------------------------
       Center         ----  Spin Dipole Couplings  ----
                      3XX-RR        3YY-RR        3ZZ-RR
 --------------------------------------------------------
     1   Atom        2.369329     -1.162531     -1.206799
     2   Atom        1.171853     -0.612439     -0.559414
 --------------------------------------------------------
                        XY            XZ            YZ
 --------------------------------------------------------
     1   Atom        0.000000      0.000000      0.000000
     2   Atom        0.000000      0.000000      0.000000
 --------------------------------------------------------


 ---------------------------------------------------------------------------------
              Anisotropic Spin Dipole Couplings in Principal Axis System
 ---------------------------------------------------------------------------------

       Atom             a.u.   MegaHertz   Gauss  10(-4) cm-1        Axes

              Baa    -1.2068  -260.890   -93.092   -87.024  0.0000  0.0000  1.0000
     1 P(31)  Bbb    -1.1625  -251.320   -89.677   -83.831  0.0000  1.0000  0.0000
              Bcc     2.3693   512.211   182.769   170.855  1.0000  0.0000  0.0000
 
              Baa    -0.6124    44.316    15.813    14.782  0.0000  1.0000  0.0000
     2 O(17)  Bbb    -0.5594    40.479    14.444    13.502  0.0000  0.0000  1.0000
              Bcc     1.1719   -84.794   -30.257   -28.284  1.0000  0.0000  0.0000
 

 ---------------------------------------------------------------------------------

 No NMR shielding tensors so no spin-rotation constants.
 Leave Link  601 at Wed Apr  8 12:54:01 2026, MaxMem=    33554432 cpu:         0.1
 (Enter /opt/g09/g09/l701.exe)
 Compute integral first derivatives.
 ... and contract with generalized density number  0.
 Leave Link  701 at Wed Apr  8 12:54:01 2026, MaxMem=    33554432 cpu:         0.0
 (Enter /opt/g09/g09/l702.exe)
 L702 exits ... SP integral derivatives will be done elsewhere.
 Leave Link  702 at Wed Apr  8 12:54:01 2026, MaxMem=    33554432 cpu:         0.0
 (Enter /opt/g09/g09/l703.exe)
 Compute integral first derivatives, UseDBF=F ICtDFT=           0.
 Integral derivatives from FoFJK, PRISM(SPDF).
 Calling FoFJK, ICntrl=      2127 FMM=F ISym2X=1 I1Cent= 0 IOpClX= 1 NMat=1 NMatS=1 NMatT=0.
 FoFJK:  IHMeth= 1 ICntrl=    2127 DoSepK=F KAlg= 0 I1Cent=   0 FoldK=F
 IRaf=         0 NMat=   1 IRICut=       1 DoRegI=T DoRafI=F ISym2E= 1.
 FoFCou: FMM=F IPFlag=           0 FMFlag=      100000 FMFlg1=         800
         NFxFlg=           0 DoJE=F BraDBF=F KetDBF=F FulRan=T
         wScrn=  0.000000 ICntrl=    2127 IOpCl=  1 I1Cent=           0 NGrid=           0
         NMat0=    1 NMatS0=      1 NMatT0=    0 NMatD0=    1 NMtDS0=    0 NMtDT0=    0
 Petite list used in FoFCou.
 Leave Link  703 at Wed Apr  8 12:54:01 2026, MaxMem=    33554432 cpu:         0.0
 (Enter /opt/g09/g09/l716.exe)
 Dipole        = 0.00000000D+00 0.00000000D+00 4.20597600D-01
 ***** Axes restored to original set *****
 -------------------------------------------------------------------
 Center     Atomic                   Forces (Hartrees/Bohr)
 Number     Number              X              Y              Z
 -------------------------------------------------------------------
      1       15           0.000000000    0.000000000   -0.065960528
      2        8           0.000000000    0.000000000    0.065960528
 -------------------------------------------------------------------
 Cartesian Forces:  Max     0.065960528 RMS     0.038082329
 Leave Link  716 at Wed Apr  8 12:54:01 2026, MaxMem=    33554432 cpu:         0.0
 (Enter /opt/g09/g09/l103.exe)

 GradGradGradGradGradGradGradGradGradGradGradGradGradGradGradGradGradGrad
 Berny optimization.
 FormGI is forming the generalized inverse of G from B-inverse, IUseBI=4.
 Internal  Forces:  Max     0.065960528 RMS     0.065960528
 Search for a local minimum.
 Step number   1 out of a maximum of   20
 All quantities printed in internal units (Hartrees-Bohrs-Radians)
 RMS Force = .65961D-01 SwitMx=.10000D-02 MixMth= 1
 Mixed Optimization -- RFO/linear search
 Second derivative matrix not updated -- first step.
 The second derivative matrix:
                          R1
           R1           0.76677
 ITU=  0
     Eigenvalues ---    0.76677
 RFO step:  Lambda=-5.63283294D-03 EMin= 7.66765589D-01
 Linear search not attempted -- first point.
 Iteration  1 RMS(Cart)=  0.06038482 RMS(Int)=  0.00000000
 Iteration  2 RMS(Cart)=  0.00000000 RMS(Int)=  0.00000000
 ITry= 1 IFail=0 DXMaxC= 4.27D-02 DCOld= 1.00D+10 DXMaxT= 3.00D-01 DXLimC= 3.00D+00 Rises=F
 ClnCor:  largest displacement from symmetrization is 0.00D+00 for atom     0.
 Variable       Old X    -DE/DX   Delta X   Delta X   Delta X     New X
                                 (Linear)    (Quad)   (Total)
    R1        2.83459   0.06596   0.00000   0.08540   0.08540   2.91999
         Item               Value     Threshold  Converged?
 Maximum Force            0.065961     0.000450     NO 
 RMS     Force            0.065961     0.000300     NO 
 Maximum Displacement     0.042699     0.001800     NO 
 RMS     Displacement     0.060385     0.001200     NO 
 Predicted change in Energy=-2.836956D-03
 Lowest energy point so far.  Saving SCF results.
 GradGradGradGradGradGradGradGradGradGradGradGradGradGradGradGradGradGrad

 Leave Link  103 at Wed Apr  8 12:54:01 2026, MaxMem=    33554432 cpu:         0.0
 (Enter /opt/g09/g09/l202.exe)
                          Input orientation:                          
 ---------------------------------------------------------------------
 Center     Atomic      Atomic             Coordinates (Angstroms)
 Number     Number       Type             X           Y           Z
 ---------------------------------------------------------------------
      1         15           0        0.000000    0.000000   -0.022595
      2          8           0        0.000000    0.000000    1.522595
 ---------------------------------------------------------------------
 Stoichiometry    OP(2)
 Framework group  C*V[C*(OP)]
 Deg. of freedom     1
 Full point group                 C*V     NOp   4
 RotChk:  IX=0 Diff= 0.00D+00
 Largest Abelian subgroup         C2V     NOp   4
 Largest concise Abelian subgroup C1      NOp   1
                         Standard orientation:                         
 ---------------------------------------------------------------------
 Center     Atomic      Atomic             Coordinates (Angstroms)
 Number     Number       Type             X           Y           Z
 ---------------------------------------------------------------------
      1         15           0        0.000000    0.000000    0.537457
      2          8           0        0.000000    0.000000   -1.007733
 ---------------------------------------------------------------------
 Rotational constants (GHZ):      0.0000000     20.0671530     20.0671530
 Leave Link  202 at Wed Apr  8 12:54:01 2026, MaxMem=    33554432 cpu:         0.0
 (Enter /opt/g09/g09/l301.exe)
 Standard basis: STO-3G (5D, 7F)
 Ernie: Thresh=  0.10000D-02 Tol=  0.10000D-05 Strict=F.
 There are     8 symmetry adapted cartesian basis functions of A1  symmetry.
 There are     0 symmetry adapted cartesian basis functions of A2  symmetry.
 There are     3 symmetry adapted cartesian basis functions of B1  symmetry.
 There are     3 symmetry adapted cartesian basis functions of B2  symmetry.
 There are     8 symmetry adapted basis functions of A1  symmetry.
 There are     0 symmetry adapted basis functions of A2  symmetry.
 There are     3 symmetry adapted basis functions of B1  symmetry.
 There are     3 symmetry adapted basis functions of B2  symmetry.
    14 basis functions,    42 primitive gaussians,    14 cartesian basis functions
    12 alpha electrons       11 beta electrons
       nuclear repulsion energy        41.0960842751 Hartrees.
 IExCor=  402 DFT=T Ex+Corr=B3LYP ExCW=0 ScaHFX=  0.200000
 ScaDFX=  0.800000  0.720000  1.000000  0.810000 ScalE2=  1.000000  1.000000
 IRadAn=      0 IRanWt=     -1 IRanGd=            0 ICorTp=0 IEmpDi=  4
 NAtoms=    2 NActive=    2 NUniq=    2 SFac= 1.00D+00 NAtFMM=   60 NAOKFM=F Big=F
 Integral buffers will be    131072 words long.
 Raffenetti 2 integral format.
 Two-electron integral symmetry is turned on.
 Leave Link  301 at Wed Apr  8 12:54:01 2026, MaxMem=    33554432 cpu:         0.0
 (Enter /opt/g09/g09/l302.exe)
 NPDir=0 NMtPBC=     1 NCelOv=     1 NCel=       1 NClECP=     1 NCelD=      1
         NCelK=      1 NCelE2=     1 NClLst=     1 CellRange=     0.0.
 One-electron integrals computed using PRISM.
 NBasis=    14 RedAO= T EigKep=  7.20D-01  NBF=     8     0     3     3
 NBsUse=    14 1.00D-06 EigRej= -1.00D+00 NBFU=     8     0     3     3
 Precomputing XC quadrature grid using
 IXCGrd= 4 IRadAn=           0 IRanWt=          -1 IRanGd=           0 AccXCQ= 0.00D+00.
 Generated NRdTot=       0 NPtTot=           0 NUsed=           0 NTot=          32
 NSgBfM=    14    14    14    14    14 MxSgAt=     2 MxSgA2=     2.
 Leave Link  302 at Wed Apr  8 12:54:01 2026, MaxMem=    33554432 cpu:         0.0
 (Enter /opt/g09/g09/l303.exe)
 DipDrv:  MaxL=1.
 Leave Link  303 at Wed Apr  8 12:54:01 2026, MaxMem=    33554432 cpu:         0.0
 (Enter /opt/g09/g09/l401.exe)
 Initial guess from the checkpoint file:  "/tmp/Gau-11090.chk"
 B after Tr=     0.000000    0.000000    0.000000
         Rot=    1.000000    0.000000    0.000000    0.000000 Ang=   0.00 deg.
 Guess basis will be translated and rotated to current coordinates.
 JPrj=2 DoOrth=T DoCkMO=T.
 Initial guess orbital symmetries:
 Alpha Orbitals:
       Occupied  (SG) (SG) (SG) (PI) (SG) (PI) (SG) (SG) (PI) (PI)
                 (SG) (PI)
       Virtual   (SG) (PI)
 Beta  Orbitals:
       Occupied  (SG) (SG) (SG) (PI) (SG) (PI) (SG) (SG) (PI) (SG)
                 (PI)
       Virtual   (SG) (PI) (PI)
 Initial guess <Sx>= 0.0000 <Sy>= 0.0000 <Sz>= 0.5000 <S**2>= 0.7503 S= 0.5001
 Generating alternative initial guess.
 ExpMin= 1.90D-01 ExpMax= 4.68D+02 ExpMxC= 4.68D+02 IAcc=1 IRadAn=         1 AccDes= 0.00D+00
 Harris functional with IExCor=  402 and IRadAn=       1 diagonalized for initial guess.
 HarFok:  IExCor=  402 AccDes= 0.00D+00 IRadAn=         1 IDoV= 1 UseB2=F ITyADJ=14
 ICtDFT=  3500011 ScaDFX=  1.000000  1.000000  1.000000  1.000000
 FoFCou: FMM=F IPFlag=           0 FMFlag=      100000 FMFlg1=           0
         NFxFlg=           0 DoJE=T BraDBF=F KetDBF=T FulRan=T
         wScrn=  0.000000 ICntrl=     500 IOpCl=  0 I1Cent=   200000004 NGrid=           0
         NMat0=    1 NMatS0=      1 NMatT0=    0 NMatD0=    1 NMtDS0=    0 NMtDT0=    0
 Petite list used in FoFCou.
 Harris En= -411.602049593765    
 Leave Link  401 at Wed Apr  8 12:54:01 2026, MaxMem=    33554432 cpu:         0.0
 (Enter /opt/g09/g09/l502.exe)
 UHF open shell SCF:
 Using DIIS extrapolation, IDIIS=  1040.
 Integral symmetry usage will be decided dynamically.
 Keep R1 and R2 ints in memory in symmetry-blocked form, NReq=885308.
 IVT=       20175 IEndB=       20175 NGot=    33554432 MDV=    33529916
 LenX=    33529916 LenY=    33529034
 Requested convergence on RMS density matrix=1.00D-08 within 128 cycles.
 Requested convergence on MAX density matrix=1.00D-06.
 Requested convergence on             energy=1.00D-06.
 No special actions if energy rises.
 FoFCou: FMM=F IPFlag=           0 FMFlag=           0 FMFlg1=           0
         NFxFlg=           0 DoJE=F BraDBF=F KetDBF=F FulRan=T
         wScrn=  0.000000 ICntrl=     600 IOpCl=  0 I1Cent=           0 NGrid=           0
         NMat0=    1 NMatS0=    105 NMatT0=    0 NMatD0=    1 NMtDS0=    0 NMtDT0=    0
 Petite list used in FoFCou.
 Integral accuracy reduced to 1.0D-05 until final iterations.

 Cycle   1  Pass 0  IDiag  1:
 E= -411.592912424483    
 DIIS: error= 5.36D-03 at cycle   1 NSaved=   1.
 NSaved= 1 IEnMin= 1 EnMin= -411.592912424483     IErMin= 1 ErrMin= 5.36D-03
 ErrMax= 5.36D-03  0.00D+00 EMaxC= 1.00D-01 BMatC= 1.42D-03 BMatP= 1.42D-03
 IDIUse=3 WtCom= 9.46D-01 WtEn= 5.36D-02
 Coeff-Com:  0.100D+01
 Coeff-En:   0.100D+01
 Coeff:      0.100D+01
 Gap=     0.081 Goal=   None    Shift=    0.000
 Gap=     0.237 Goal=   None    Shift=    0.000
 GapD=    0.081 DampG=0.500 DampE=1.000 DampFc=0.5000 IDamp=-1.
 Damping current iteration by 5.00D-01
 RMSDP=3.94D-03 MaxDP=2.24D-02              OVMax= 0.00D+00

 Cycle   2  Pass 0  IDiag  1:
 E= -411.592827639506     Delta-E=        0.000084784977 Rises=F Damp=T
 DIIS: error= 3.50D-03 at cycle   2 NSaved=   2.
 NSaved= 2 IEnMin= 1 EnMin= -411.592912424483     IErMin= 2 ErrMin= 3.50D-03
 ErrMax= 3.50D-03  0.00D+00 EMaxC= 1.00D-01 BMatC= 7.56D-04 BMatP= 1.42D-03
 IDIUse=3 WtCom= 9.65D-01 WtEn= 3.50D-02
 Coeff-Com:  0.363D+00 0.637D+00
 Coeff-En:   0.585D+00 0.415D+00
 Coeff:      0.371D+00 0.629D+00
 Gap=     0.081 Goal=   None    Shift=    0.000
 Gap=     0.241 Goal=   None    Shift=    0.000
 RMSDP=2.52D-03 MaxDP=1.77D-02 DE= 8.48D-05 OVMax= 0.00D+00

 Cycle   3  Pass 0  IDiag  1:
 E= -411.593027775391     Delta-E=       -0.000200135885 Rises=F Damp=F
 DIIS: error= 3.90D-03 at cycle   3 NSaved=   3.
 NSaved= 3 IEnMin= 3 EnMin= -411.593027775391     IErMin= 2 ErrMin= 3.50D-03
 ErrMax= 3.90D-03  0.00D+00 EMaxC= 1.00D-01 BMatC= 9.40D-04 BMatP= 7.56D-04
 IDIUse=3 WtCom= 1.38D-01 WtEn= 8.62D-01
 Coeff-Com: -0.310D+00 0.608D+00 0.702D+00
 Coeff-En:   0.000D+00 0.367D+00 0.633D+00
 Coeff:     -0.428D-01 0.400D+00 0.642D+00
 Gap=     0.081 Goal=   None    Shift=    0.000
 Gap=     0.238 Goal=   None    Shift=    0.000
 RMSDP=2.34D-03 MaxDP=1.62D-02 DE=-2.00D-04 OVMax= 0.00D+00

 Cycle   4  Pass 0  IDiag  1:
 E= -411.593042972050     Delta-E=       -0.000015196658 Rises=F Damp=F
 DIIS: error= 3.89D-03 at cycle   4 NSaved=   4.
 NSaved= 4 IEnMin= 4 EnMin= -411.593042972050     IErMin= 2 ErrMin= 3.50D-03
 ErrMax= 3.89D-03  0.00D+00 EMaxC= 1.00D-01 BMatC= 8.69D-04 BMatP= 7.56D-04
 IDIUse=3 WtCom= 1.38D-01 WtEn= 8.62D-01
 Coeff-Com:  0.374D+00-0.754D+00 0.238D+00 0.114D+01
 Coeff-En:   0.000D+00 0.000D+00 0.491D+00 0.509D+00
 Coeff:      0.516D-01-0.104D+00 0.456D+00 0.596D+00
 Gap=     0.081 Goal=   None    Shift=    0.000
 Gap=     0.240 Goal=   None    Shift=    0.000
 RMSDP=1.18D-03 MaxDP=8.24D-03 DE=-1.52D-05 OVMax= 0.00D+00

 Cycle   5  Pass 0  IDiag  1:
 E= -411.593317255932     Delta-E=       -0.000274283882 Rises=F Damp=F
 DIIS: error= 1.08D-04 at cycle   5 NSaved=   5.
 NSaved= 5 IEnMin= 5 EnMin= -411.593317255932     IErMin= 5 ErrMin= 1.08D-04
 ErrMax= 1.08D-04  0.00D+00 EMaxC= 1.00D-01 BMatC= 4.73D-07 BMatP= 7.56D-04
 IDIUse=3 WtCom= 9.99D-01 WtEn= 1.08D-03
 Coeff-Com: -0.324D+00 0.645D+00-0.283D+00-0.102D+01 0.198D+01
 Coeff-En:   0.000D+00 0.000D+00 0.000D+00 0.000D+00 0.100D+01
 Coeff:     -0.324D+00 0.645D+00-0.282D+00-0.102D+01 0.198D+01
 Gap=     0.081 Goal=   None    Shift=    0.000
 Gap=     0.240 Goal=   None    Shift=    0.000
 RMSDP=6.44D-05 MaxDP=5.51D-04 DE=-2.74D-04 OVMax= 0.00D+00

 Cycle   6  Pass 0  IDiag  1:
 E= -411.593317516056     Delta-E=       -0.000000260125 Rises=F Damp=F
 DIIS: error= 6.51D-05 at cycle   6 NSaved=   6.
 NSaved= 6 IEnMin= 6 EnMin= -411.593317516056     IErMin= 6 ErrMin= 6.51D-05
 ErrMax= 6.51D-05  0.00D+00 EMaxC= 1.00D-01 BMatC= 1.18D-07 BMatP= 4.73D-07
 IDIUse=1 WtCom= 1.00D+00 WtEn= 0.00D+00
 Coeff-Com:  0.353D-01-0.688D-01 0.303D-01 0.119D+00-0.478D+00 0.136D+01
 Coeff:      0.353D-01-0.688D-01 0.303D-01 0.119D+00-0.478D+00 0.136D+01
 Gap=     0.081 Goal=   None    Shift=    0.000
 Gap=     0.240 Goal=   None    Shift=    0.000
 RMSDP=3.78D-05 MaxDP=4.48D-04 DE=-2.60D-07 OVMax= 0.00D+00

 Cycle   7  Pass 0  IDiag  1:
 E= -411.593317602686     Delta-E=       -0.000000086629 Rises=F Damp=F
 DIIS: error= 2.02D-05 at cycle   7 NSaved=   7.
 NSaved= 7 IEnMin= 7 EnMin= -411.593317602686     IErMin= 7 ErrMin= 2.02D-05
 ErrMax= 2.02D-05  0.00D+00 EMaxC= 1.00D-01 BMatC= 9.21D-09 BMatP= 1.18D-07
 IDIUse=1 WtCom= 1.00D+00 WtEn= 0.00D+00
 Coeff-Com:  0.109D-01-0.222D-01 0.191D-01 0.258D-01 0.113D-01-0.141D+01
 Coeff-Com:  0.236D+01
 Coeff:      0.109D-01-0.222D-01 0.191D-01 0.258D-01 0.113D-01-0.141D+01
 Coeff:      0.236D+01
 Gap=     0.081 Goal=   None    Shift=    0.000
 Gap=     0.240 Goal=   None    Shift=    0.000
 RMSDP=4.72D-05 MaxDP=4.42D-04 DE=-8.66D-08 OVMax= 0.00D+00

 Cycle   8  Pass 0  IDiag  1:
 E= -411.593317640928     Delta-E=       -0.000000038242 Rises=F Damp=F
 DIIS: error= 5.19D-06 at cycle   8 NSaved=   8.
 NSaved= 8 IEnMin= 8 EnMin= -411.593317640928     IErMin= 8 ErrMin= 5.19D-06
 ErrMax= 5.19D-06  0.00D+00 EMaxC= 1.00D-01 BMatC= 4.78D-10 BMatP= 9.21D-09
 IDIUse=1 WtCom= 1.00D+00 WtEn= 0.00D+00
 Coeff-Com: -0.520D-02 0.104D-01-0.120D-01-0.124D-01 0.522D-01 0.715D+00
 Coeff-Com: -0.165D+01 0.190D+01
 Coeff:     -0.520D-02 0.104D-01-0.120D-01-0.124D-01 0.522D-01 0.715D+00
 Coeff:     -0.165D+01 0.190D+01
 Gap=     0.081 Goal=   None    Shift=    0.000
 Gap=     0.240 Goal=   None    Shift=    0.000
 RMSDP=1.69D-05 MaxDP=1.63D-04 DE=-3.82D-08 OVMax= 0.00D+00

 Cycle   9  Pass 0  IDiag  1:
 E= -411.593317644025     Delta-E=       -0.000000003098 Rises=F Damp=F
 DIIS: error= 9.71D-07 at cycle   9 NSaved=   9.
 NSaved= 9 IEnMin= 9 EnMin= -411.593317644025     IErMin= 9 ErrMin= 9.71D-07
 ErrMax= 9.71D-07  0.00D+00 EMaxC= 1.00D-01 BMatC= 5.29D-11 BMatP= 4.78D-10
 IDIUse=1 WtCom= 1.00D+00 WtEn= 0.00D+00
 Coeff-Com:  0.328D-03-0.648D-03 0.594D-03 0.111D-02-0.325D-02-0.291D-01
 Coeff-Com:  0.730D-01-0.971D-01 0.106D+01
 Coeff:      0.328D-03-0.648D-03 0.594D-03 0.111D-02-0.325D-02-0.291D-01
 Coeff:      0.730D-01-0.971D-01 0.106D+01
 Gap=     0.081 Goal=   None    Shift=    0.000
 Gap=     0.240 Goal=   None    Shift=    0.000
 RMSDP=3.17D-07 MaxDP=2.48D-06 DE=-3.10D-09 OVMax= 0.00D+00

 Initial convergence to 1.0D-05 achieved.  Increase integral accuracy.
 Cycle  10  Pass 1  IDiag  1:
 E= -411.593280550259     Delta-E=        0.000037093766 Rises=F Damp=F
 DIIS: error= 2.42D-05 at cycle   1 NSaved=   1.
 NSaved= 1 IEnMin= 1 EnMin= -411.593280550259     IErMin= 1 ErrMin= 2.42D-05
 ErrMax= 2.42D-05  0.00D+00 EMaxC= 1.00D-01 BMatC= 1.56D-08 BMatP= 1.56D-08
 IDIUse=1 WtCom= 1.00D+00 WtEn= 0.00D+00
 Coeff-Com:  0.100D+01
 Coeff:      0.100D+01
 Gap=     0.081 Goal=   None    Shift=    0.000
 Gap=     0.240 Goal=   None    Shift=    0.000
 RMSDP=3.17D-07 MaxDP=2.48D-06 DE= 3.71D-05 OVMax= 0.00D+00

 Cycle  11  Pass 1  IDiag  1:
 E= -411.593280550632     Delta-E=       -0.000000000373 Rises=F Damp=F
 DIIS: error= 1.55D-05 at cycle   2 NSaved=   2.
 NSaved= 2 IEnMin= 2 EnMin= -411.593280550632     IErMin= 2 ErrMin= 1.55D-05
 ErrMax= 1.55D-05  0.00D+00 EMaxC= 1.00D-01 BMatC= 1.13D-08 BMatP= 1.56D-08
 IDIUse=1 WtCom= 1.00D+00 WtEn= 0.00D+00
 Coeff-Com:  0.430D+00 0.570D+00
 Coeff:      0.430D+00 0.570D+00
 Gap=     0.081 Goal=   None    Shift=    0.000
 Gap=     0.240 Goal=   None    Shift=    0.000
 RMSDP=1.05D-05 MaxDP=8.34D-05 DE=-3.73D-10 OVMax= 0.00D+00

 Cycle  12  Pass 1  IDiag  1:
 E= -411.593280545818     Delta-E=        0.000000004814 Rises=F Damp=F
 DIIS: error= 2.22D-05 at cycle   3 NSaved=   3.
 NSaved= 3 IEnMin= 2 EnMin= -411.593280550632     IErMin= 2 ErrMin= 1.55D-05
 ErrMax= 2.22D-05  0.00D+00 EMaxC= 1.00D-01 BMatC= 2.67D-08 BMatP= 1.13D-08
 IDIUse=1 WtCom= 1.00D+00 WtEn= 0.00D+00
 Coeff-Com: -0.374D-02 0.608D+00 0.395D+00
 Coeff:     -0.374D-02 0.608D+00 0.395D+00
 Gap=     0.081 Goal=   None    Shift=    0.000
 Gap=     0.240 Goal=   None    Shift=    0.000
 RMSDP=6.72D-06 MaxDP=5.05D-05 DE= 4.81D-09 OVMax= 0.00D+00

 Cycle  13  Pass 1  IDiag  1:
 E= -411.593280554403     Delta-E=       -0.000000008585 Rises=F Damp=F
 DIIS: error= 1.92D-06 at cycle   4 NSaved=   4.
 NSaved= 4 IEnMin= 4 EnMin= -411.593280554403     IErMin= 4 ErrMin= 1.92D-06
 ErrMax= 1.92D-06  0.00D+00 EMaxC= 1.00D-01 BMatC= 7.44D-11 BMatP= 1.13D-08
 IDIUse=1 WtCom= 1.00D+00 WtEn= 0.00D+00
 Coeff-Com: -0.513D-02-0.361D+00-0.185D+00 0.155D+01
 Coeff:     -0.513D-02-0.361D+00-0.185D+00 0.155D+01
 Gap=     0.081 Goal=   None    Shift=    0.000
 Gap=     0.240 Goal=   None    Shift=    0.000
 RMSDP=2.10D-06 MaxDP=2.14D-05 DE=-8.58D-09 OVMax= 0.00D+00

 Cycle  14  Pass 1  IDiag  1:
 E= -411.593280554607     Delta-E=       -0.000000000204 Rises=F Damp=F
 DIIS: error= 7.36D-07 at cycle   5 NSaved=   5.
 NSaved= 5 IEnMin= 5 EnMin= -411.593280554607     IErMin= 5 ErrMin= 7.36D-07
 ErrMax= 7.36D-07  0.00D+00 EMaxC= 1.00D-01 BMatC= 1.72D-11 BMatP= 7.44D-11
 IDIUse=1 WtCom= 1.00D+00 WtEn= 0.00D+00
 Coeff-Com:  0.454D-02 0.114D+00 0.256D-01-0.128D+01 0.214D+01
 Coeff:      0.454D-02 0.114D+00 0.256D-01-0.128D+01 0.214D+01
 Gap=     0.081 Goal=   None    Shift=    0.000
 Gap=     0.240 Goal=   None    Shift=    0.000
 RMSDP=2.37D-06 MaxDP=2.31D-05 DE=-2.04D-10 OVMax= 0.00D+00

 Cycle  15  Pass 1  IDiag  1:
 E= -411.593280554721     Delta-E=       -0.000000000114 Rises=F Damp=F
 DIIS: error= 4.30D-07 at cycle   6 NSaved=   6.
 NSaved= 6 IEnMin= 6 EnMin= -411.593280554721     IErMin= 6 ErrMin= 4.30D-07
 ErrMax= 4.30D-07  0.00D+00 EMaxC= 1.00D-01 BMatC= 3.25D-12 BMatP= 1.72D-11
 IDIUse=1 WtCom= 1.00D+00 WtEn= 0.00D+00
 Coeff-Com: -0.139D-02 0.194D-01 0.216D-01 0.457D+00-0.143D+01 0.194D+01
 Coeff:     -0.139D-02 0.194D-01 0.216D-01 0.457D+00-0.143D+01 0.194D+01
 Gap=     0.081 Goal=   None    Shift=    0.000
 Gap=     0.240 Goal=   None    Shift=    0.000
 RMSDP=1.21D-06 MaxDP=1.11D-05 DE=-1.14D-10 OVMax= 0.00D+00

 Cycle  16  Pass 1  IDiag  1:
 E= -411.593280554739     Delta-E=       -0.000000000018 Rises=F Damp=F
 DIIS: error= 6.31D-08 at cycle   7 NSaved=   7.
 NSaved= 7 IEnMin= 7 EnMin= -411.593280554739     IErMin= 7 ErrMin= 6.31D-08
 ErrMax= 6.31D-08  0.00D+00 EMaxC= 1.00D-01 BMatC= 1.46D-13 BMatP= 3.25D-12
 IDIUse=1 WtCom= 1.00D+00 WtEn= 0.00D+00
 Coeff-Com: -0.132D-03-0.903D-02-0.135D-02 0.402D-01-0.215D-01-0.139D+00
 Coeff-Com:  0.113D+01
 Coeff:     -0.132D-03-0.903D-02-0.135D-02 0.402D-01-0.215D-01-0.139D+00
 Coeff:      0.113D+01
 Gap=     0.081 Goal=   None    Shift=    0.000
 Gap=     0.240 Goal=   None    Shift=    0.000
 RMSDP=1.05D-07 MaxDP=9.79D-07 DE=-1.77D-11 OVMax= 0.00D+00

 Cycle  17  Pass 1  IDiag  1:
 E= -411.593280554739     Delta-E=        0.000000000000 Rises=F Damp=F
 DIIS: error= 9.90D-09 at cycle   8 NSaved=   8.
 NSaved= 8 IEnMin= 7 EnMin= -411.593280554739     IErMin= 8 ErrMin= 9.90D-09
 ErrMax= 9.90D-09  0.00D+00 EMaxC= 1.00D-01 BMatC= 4.54D-15 BMatP= 1.46D-13
 IDIUse=1 WtCom= 1.00D+00 WtEn= 0.00D+00
 Coeff-Com:  0.430D-04 0.122D-03 0.461D-04-0.884D-02 0.215D-01-0.166D-01
 Coeff-Com: -0.101D+00 0.110D+01
 Coeff:      0.430D-04 0.122D-03 0.461D-04-0.884D-02 0.215D-01-0.166D-01
 Coeff:     -0.101D+00 0.110D+01
 Gap=     0.081 Goal=   None    Shift=    0.000
 Gap=     0.240 Goal=   None    Shift=    0.000
 RMSDP=4.25D-09 MaxDP=4.60D-08 DE= 0.00D+00 OVMax= 0.00D+00

 SCF Done:  E(UB3LYP) =  -411.593280555     A.U. after   17 cycles
            NFock= 17  Conv=0.43D-08     -V/T= 2.0129
 <Sx>= 0.0000 <Sy>= 0.0000 <Sz>= 0.5000 <S**2>= 0.7503 S= 0.5002
 <L.S>= 0.000000000000E+00
 KE= 4.063402798026D+02 PE=-1.061025678373D+03 EE= 2.019960337409D+02
 Annihilation of the first spin contaminant:
 S**2 before annihilation     0.7503,   after     0.7500
 Leave Link  502 at Wed Apr  8 12:54:01 2026, MaxMem=    33554432 cpu:         0.1
 (Enter /opt/g09/g09/l701.exe)
 Compute integral first derivatives.
 ... and contract with generalized density number  0.
 Leave Link  701 at Wed Apr  8 12:54:01 2026, MaxMem=    33554432 cpu:         0.0
 (Enter /opt/g09/g09/l702.exe)
 L702 exits ... SP integral derivatives will be done elsewhere.
 Leave Link  702 at Wed Apr  8 12:54:01 2026, MaxMem=    33554432 cpu:         0.0
 (Enter /opt/g09/g09/l703.exe)
 Compute integral first derivatives, UseDBF=F ICtDFT=           0.
 Integral derivatives from FoFJK, PRISM(SPDF).
 Calling FoFJK, ICntrl=      2127 FMM=F ISym2X=1 I1Cent= 0 IOpClX= 1 NMat=1 NMatS=1 NMatT=0.
 FoFJK:  IHMeth= 1 ICntrl=    2127 DoSepK=F KAlg= 0 I1Cent=   0 FoldK=F
 IRaf=         0 NMat=   1 IRICut=       1 DoRegI=T DoRafI=F ISym2E= 1.
 FoFCou: FMM=F IPFlag=           0 FMFlag=      100000 FMFlg1=         800
         NFxFlg=           0 DoJE=F BraDBF=F KetDBF=F FulRan=T
         wScrn=  0.000000 ICntrl=    2127 IOpCl=  1 I1Cent=           0 NGrid=           0
         NMat0=    1 NMatS0=      1 NMatT0=    0 NMatD0=    1 NMtDS0=    0 NMtDT0=    0
 Petite list used in FoFCou.
 Leave Link  703 at Wed Apr  8 12:54:01 2026, MaxMem=    33554432 cpu:         0.0
 (Enter /opt/g09/g09/l716.exe)
 Dipole        = 0.00000000D+00 0.00000000D+00 4.30845713D-01
 ***** Axes restored to original set *****
 -------------------------------------------------------------------
 Center     Atomic                   Forces (Hartrees/Bohr)
 Number     Number              X              Y              Z
 -------------------------------------------------------------------
      1       15           0.000000000    0.000000000   -0.005713437
      2        8           0.000000000    0.000000000    0.005713437
 -------------------------------------------------------------------
 Cartesian Forces:  Max     0.005713437 RMS     0.003298654
 Leave Link  716 at Wed Apr  8 12:54:01 2026, MaxMem=    33554432 cpu:         0.0
 (Enter /opt/g09/g09/l103.exe)

 GradGradGradGradGradGradGradGradGradGradGradGradGradGradGradGradGradGrad
 Berny optimization.
 Using GEDIIS/GDIIS optimizer.
 Red2BG is reusing G-inverse.
 Internal  Forces:  Max     0.005713437 RMS     0.005713437
 Search for a local minimum.
 Step number   2 out of a maximum of   20
 All quantities printed in internal units (Hartrees-Bohrs-Radians)
 RMS Force = .57134D-02 SwitMx=.10000D-02 MixMth= 1
 Mixed Optimization -- RFO/linear search
 Update second derivatives using D2CorX and points    1    2
 DE= -2.97D-03 DEPred=-2.84D-03 R= 1.05D+00
 TightC=F SS=  1.41D+00  RLast= 8.54D-02 DXNew= 5.0454D-01 2.5619D-01
 Trust test= 1.05D+00 RLast= 8.54D-02 DXMaxT set to 3.00D-01
 The second derivative matrix:
                          R1
           R1           0.70549
 ITU=  1  0
 Use linear search instead of GDIIS.
     Eigenvalues ---    0.70549
 RFO step:  Lambda= 0.00000000D+00 EMin= 7.05494017D-01
 Quartic linear search produced a step of  0.10769.
 Iteration  1 RMS(Cart)=  0.00650274 RMS(Int)=  0.00000000
 Iteration  2 RMS(Cart)=  0.00000000 RMS(Int)=  0.00000000
 ITry= 1 IFail=0 DXMaxC= 4.60D-03 DCOld= 1.00D+10 DXMaxT= 3.00D-01 DXLimC= 3.00D+00 Rises=F
 ClnCor:  largest displacement from symmetrization is 0.00D+00 for atom     0.
 Variable       Old X    -DE/DX   Delta X   Delta X   Delta X     New X
                                 (Linear)    (Quad)   (Total)
    R1        2.91999   0.00571   0.00920   0.00000   0.00920   2.92918
         Item               Value     Threshold  Converged?
 Maximum Force            0.005713     0.000450     NO 
 RMS     Force            0.005713     0.000300     NO 
 Maximum Displacement     0.004598     0.001800     NO 
 RMS     Displacement     0.006503     0.001200     NO 
 Predicted change in Energy=-2.271001D-05
 Lowest energy point so far.  Saving SCF results.
 GradGradGradGradGradGradGradGradGradGradGradGradGradGradGradGradGradGrad

 Leave Link  103 at Wed Apr  8 12:54:01 2026, MaxMem=    33554432 cpu:         0.0
 (Enter /opt/g09/g09/l202.exe)
                          Input orientation:                          
 ---------------------------------------------------------------------
 Center     Atomic      Atomic             Coordinates (Angstroms)
 Number     Number       Type             X           Y           Z
 ---------------------------------------------------------------------
      1         15           0        0.000000    0.000000   -0.025028
      2          8           0        0.000000    0.000000    1.525028
 ---------------------------------------------------------------------
 Stoichiometry    OP(2)
 Framework group  C*V[C*(OP)]
 Deg. of freedom     1
 Full point group                 C*V     NOp   4
 RotChk:  IX=0 Diff= 0.00D+00
 Largest Abelian subgroup         C2V     NOp   4
 Largest concise Abelian subgroup C1      NOp   1
                         Standard orientation:                         
 ---------------------------------------------------------------------
 Center     Atomic      Atomic             Coordinates (Angstroms)
 Number     Number       Type             X           Y           Z
 ---------------------------------------------------------------------
      1         15           0        0.000000    0.000000    0.539150
      2          8           0        0.000000    0.000000   -1.010906
 ---------------------------------------------------------------------
 Rotational constants (GHZ):      0.0000000     19.9413479     19.9413479
 Leave Link  202 at Wed Apr  8 12:54:01 2026, MaxMem=    33554432 cpu:         0.0
 (Enter /opt/g09/g09/l301.exe)
 Standard basis: STO-3G (5D, 7F)
 Ernie: Thresh=  0.10000D-02 Tol=  0.10000D-05 Strict=F.
 There are     8 symmetry adapted cartesian basis functions of A1  symmetry.
 There are     0 symmetry adapted cartesian basis functions of A2  symmetry.
 There are     3 symmetry adapted cartesian basis functions of B1  symmetry.
 There are     3 symmetry adapted cartesian basis functions of B2  symmetry.
 There are     8 symmetry adapted basis functions of A1  symmetry.
 There are     0 symmetry adapted basis functions of A2  symmetry.
 There are     3 symmetry adapted basis functions of B1  symmetry.
 There are     3 symmetry adapted basis functions of B2  symmetry.
    14 basis functions,    42 primitive gaussians,    14 cartesian basis functions
    12 alpha electrons       11 beta electrons
       nuclear repulsion energy        40.9670618007 Hartrees.
 IExCor=  402 DFT=T Ex+Corr=B3LYP ExCW=0 ScaHFX=  0.200000
 ScaDFX=  0.800000  0.720000  1.000000  0.810000 ScalE2=  1.000000  1.000000
 IRadAn=      0 IRanWt=     -1 IRanGd=            0 ICorTp=0 IEmpDi=  4
 NAtoms=    2 NActive=    2 NUniq=    2 SFac= 1.00D+00 NAtFMM=   60 NAOKFM=F Big=F
 Integral buffers will be    131072 words long.
 Raffenetti 2 integral format.
 Two-electron integral symmetry is turned on.
 Leave Link  301 at Wed Apr  8 12:54:01 2026, MaxMem=    33554432 cpu:         0.0
 (Enter /opt/g09/g09/l302.exe)
 NPDir=0 NMtPBC=     1 NCelOv=     1 NCel=       1 NClECP=     1 NCelD=      1
         NCelK=      1 NCelE2=     1 NClLst=     1 CellRange=     0.0.
 One-electron integrals computed using PRISM.
 NBasis=    14 RedAO= T EigKep=  7.25D-01  NBF=     8     0     3     3
 NBsUse=    14 1.00D-06 EigRej= -1.00D+00 NBFU=     8     0     3     3
 Precomputing XC quadrature grid using
 IXCGrd= 4 IRadAn=           0 IRanWt=          -1 IRanGd=           0 AccXCQ= 0.00D+00.
 Generated NRdTot=       0 NPtTot=           0 NUsed=           0 NTot=          32
 NSgBfM=    14    14    14    14    14 MxSgAt=     2 MxSgA2=     2.
 Leave Link  302 at Wed Apr  8 12:54:01 2026, MaxMem=    33554432 cpu:         0.0
 (Enter /opt/g09/g09/l303.exe)
 DipDrv:  MaxL=1.
 Leave Link  303 at Wed Apr  8 12:54:01 2026, MaxMem=    33554432 cpu:         0.0
 (Enter /opt/g09/g09/l401.exe)
 Initial guess from the checkpoint file:  "/tmp/Gau-11090.chk"
 B after Tr=     0.000000    0.000000    0.000000
         Rot=    1.000000    0.000000    0.000000    0.000000 Ang=   0.00 deg.
 Guess basis will be translated and rotated to current coordinates.
 JPrj=2 DoOrth=T DoCkMO=T.
 Initial guess orbital symmetries:
 Alpha Orbitals:
       Occupied  (SG) (SG) (SG) (PI) (SG) (PI) (SG) (SG) (PI) (PI)
                 (SG) (PI)
       Virtual   (SG) (PI)
 Beta  Orbitals:
       Occupied  (SG) (SG) (SG) (PI) (SG) (PI) (SG) (SG) (PI) (SG)
                 (PI)
       Virtual   (SG) (PI) (PI)
 Initial guess <Sx>= 0.0000 <Sy>= 0.0000 <Sz>= 0.5000 <S**2>= 0.7503 S= 0.5002
 Leave Link  401 at Wed Apr  8 12:54:01 2026, MaxMem=    33554432 cpu:         0.0
 (Enter /opt/g09/g09/l502.exe)
 UHF open shell SCF:
 Using DIIS extrapolation, IDIIS=  1040.
 Integral symmetry usage will be decided dynamically.
 Keep R1 and R2 ints in memory in symmetry-blocked form, NReq=885308.
 IVT=       20175 IEndB=       20175 NGot=    33554432 MDV=    33529916
 LenX=    33529916 LenY=    33529034
 Requested convergence on RMS density matrix=1.00D-08 within 128 cycles.
 Requested convergence on MAX density matrix=1.00D-06.
 Requested convergence on             energy=1.00D-06.
 No special actions if energy rises.
 FoFCou: FMM=F IPFlag=           0 FMFlag=           0 FMFlg1=           0
         NFxFlg=           0 DoJE=F BraDBF=F KetDBF=F FulRan=T
         wScrn=  0.000000 ICntrl=     600 IOpCl=  0 I1Cent=           0 NGrid=           0
         NMat0=    1 NMatS0=    105 NMatT0=    0 NMatD0=    1 NMtDS0=    0 NMtDT0=    0
 Petite list used in FoFCou.

 Cycle   1  Pass 1  IDiag  1:
 E= -411.593302504779    
 DIIS: error= 5.23D-04 at cycle   1 NSaved=   1.
 NSaved= 1 IEnMin= 1 EnMin= -411.593302504779     IErMin= 1 ErrMin= 5.23D-04
 ErrMax= 5.23D-04  0.00D+00 EMaxC= 1.00D-01 BMatC= 1.46D-05 BMatP= 1.46D-05
 IDIUse=3 WtCom= 9.95D-01 WtEn= 5.23D-03
 Coeff-Com:  0.100D+01
 Coeff-En:   0.100D+01
 Coeff:      0.100D+01
 Gap=     0.081 Goal=   None    Shift=    0.000
 Gap=     0.237 Goal=   None    Shift=    0.000
 RMSDP=3.93D-04 MaxDP=2.25D-03              OVMax= 0.00D+00

 Cycle   2  Pass 1  IDiag  1:
 E= -411.593291456190     Delta-E=        0.000011048589 Rises=F Damp=F
 DIIS: error= 9.26D-04 at cycle   2 NSaved=   2.
 NSaved= 2 IEnMin= 1 EnMin= -411.593302504779     IErMin= 1 ErrMin= 5.23D-04
 ErrMax= 9.26D-04  0.00D+00 EMaxC= 1.00D-01 BMatC= 4.77D-05 BMatP= 1.46D-05
 IDIUse=3 WtCom= 2.47D-01 WtEn= 7.53D-01
 Coeff-Com:  0.675D+00 0.325D+00
 Coeff-En:   0.785D+00 0.215D+00
 Coeff:      0.758D+00 0.242D+00
 Gap=     0.081 Goal=   None    Shift=    0.000
 Gap=     0.238 Goal=   None    Shift=    0.000
 RMSDP=2.99D-04 MaxDP=2.11D-03 DE= 1.10D-05 OVMax= 0.00D+00

 Cycle   3  Pass 1  IDiag  1:
 E= -411.593306488368     Delta-E=       -0.000015032178 Rises=F Damp=F
 DIIS: error= 8.84D-05 at cycle   3 NSaved=   3.
 NSaved= 3 IEnMin= 3 EnMin= -411.593306488368     IErMin= 3 ErrMin= 8.84D-05
 ErrMax= 8.84D-05  0.00D+00 EMaxC= 1.00D-01 BMatC= 6.16D-07 BMatP= 1.46D-05
 IDIUse=1 WtCom= 1.00D+00 WtEn= 0.00D+00
 Coeff-Com: -0.496D-02 0.982D-01 0.907D+00
 Coeff:     -0.496D-02 0.982D-01 0.907D+00
 Gap=     0.081 Goal=   None    Shift=    0.000
 Gap=     0.238 Goal=   None    Shift=    0.000
 RMSDP=3.38D-05 MaxDP=2.40D-04 DE=-1.50D-05 OVMax= 0.00D+00

 Cycle   4  Pass 1  IDiag  1:
 E= -411.593306675746     Delta-E=       -0.000000187378 Rises=F Damp=F
 DIIS: error= 2.74D-05 at cycle   4 NSaved=   4.
 NSaved= 4 IEnMin= 4 EnMin= -411.593306675746     IErMin= 4 ErrMin= 2.74D-05
 ErrMax= 2.74D-05  0.00D+00 EMaxC= 1.00D-01 BMatC= 3.45D-08 BMatP= 6.16D-07
 IDIUse=1 WtCom= 1.00D+00 WtEn= 0.00D+00
 Coeff-Com: -0.504D-02 0.177D-01-0.756D-01 0.106D+01
 Coeff:     -0.504D-02 0.177D-01-0.756D-01 0.106D+01
 Gap=     0.081 Goal=   None    Shift=    0.000
 Gap=     0.238 Goal=   None    Shift=    0.000
 RMSDP=9.52D-06 MaxDP=9.14D-05 DE=-1.87D-07 OVMax= 0.00D+00

 Cycle   5  Pass 1  IDiag  1:
 E= -411.593306688658     Delta-E=       -0.000000012912 Rises=F Damp=F
 DIIS: error= 6.50D-06 at cycle   5 NSaved=   5.
 NSaved= 5 IEnMin= 5 EnMin= -411.593306688658     IErMin= 5 ErrMin= 6.50D-06
 ErrMax= 6.50D-06  0.00D+00 EMaxC= 1.00D-01 BMatC= 8.78D-10 BMatP= 3.45D-08
 IDIUse=1 WtCom= 1.00D+00 WtEn= 0.00D+00
 Coeff-Com:  0.129D-02-0.513D-02-0.116D-01-0.313D+00 0.133D+01
 Coeff:      0.129D-02-0.513D-02-0.116D-01-0.313D+00 0.133D+01
 Gap=     0.081 Goal=   None    Shift=    0.000
 Gap=     0.238 Goal=   None    Shift=    0.000
 RMSDP=5.89D-06 MaxDP=6.16D-05 DE=-1.29D-08 OVMax= 0.00D+00

 Cycle   6  Pass 1  IDiag  1:
 E= -411.593306690529     Delta-E=       -0.000000001871 Rises=F Damp=F
 DIIS: error= 2.79D-06 at cycle   6 NSaved=   6.
 NSaved= 6 IEnMin= 6 EnMin= -411.593306690529     IErMin= 6 ErrMin= 2.79D-06
 ErrMax= 2.79D-06  0.00D+00 EMaxC= 1.00D-01 BMatC= 2.23D-10 BMatP= 8.78D-10
 IDIUse=1 WtCom= 1.00D+00 WtEn= 0.00D+00
 Coeff-Com: -0.332D-03-0.113D-03 0.323D-01 0.132D+00-0.171D+01 0.255D+01
 Coeff:     -0.332D-03-0.113D-03 0.323D-01 0.132D+00-0.171D+01 0.255D+01
 Gap=     0.081 Goal=   None    Shift=    0.000
 Gap=     0.238 Goal=   None    Shift=    0.000
 RMSDP=8.54D-06 MaxDP=8.25D-05 DE=-1.87D-09 OVMax= 0.00D+00

 Cycle   7  Pass 1  IDiag  1:
 E= -411.593306691897     Delta-E=       -0.000000001368 Rises=F Damp=F
 DIIS: error= 9.71D-07 at cycle   7 NSaved=   7.
 NSaved= 7 IEnMin= 7 EnMin= -411.593306691897     IErMin= 7 ErrMin= 9.71D-07
 ErrMax= 9.71D-07  0.00D+00 EMaxC= 1.00D-01 BMatC= 2.64D-11 BMatP= 2.23D-10
 IDIUse=1 WtCom= 1.00D+00 WtEn= 0.00D+00
 Coeff-Com:  0.361D-04 0.170D-02-0.308D-01-0.633D-01 0.149D+01-0.270D+01
 Coeff-Com:  0.230D+01
 Coeff:      0.361D-04 0.170D-02-0.308D-01-0.633D-01 0.149D+01-0.270D+01
 Coeff:      0.230D+01
 Gap=     0.081 Goal=   None    Shift=    0.000
 Gap=     0.238 Goal=   None    Shift=    0.000
 RMSDP=4.25D-06 MaxDP=3.91D-05 DE=-1.37D-09 OVMax= 0.00D+00

 Cycle   8  Pass 1  IDiag  1:
 E= -411.593306692084     Delta-E=       -0.000000000187 Rises=F Damp=F
 DIIS: error= 2.78D-08 at cycle   8 NSaved=   8.
 NSaved= 8 IEnMin= 8 EnMin= -411.593306692084     IErMin= 8 ErrMin= 2.78D-08
 ErrMax= 2.78D-08  0.00D+00 EMaxC= 1.00D-01 BMatC= 2.74D-14 BMatP= 2.64D-11
 IDIUse=1 WtCom= 1.00D+00 WtEn= 0.00D+00
 Coeff-Com:  0.552D-05-0.377D-04 0.102D-02 0.156D-02-0.461D-01 0.862D-01
 Coeff-Com: -0.856D-01 0.104D+01
 Coeff:      0.552D-05-0.377D-04 0.102D-02 0.156D-02-0.461D-01 0.862D-01
 Coeff:     -0.856D-01 0.104D+01
 Gap=     0.081 Goal=   None    Shift=    0.000
 Gap=     0.238 Goal=   None    Shift=    0.000
 RMSDP=3.89D-08 MaxDP=3.73D-07 DE=-1.87D-10 OVMax= 0.00D+00

 Cycle   9  Pass 1  IDiag  1:
 E= -411.593306692084     Delta-E=        0.000000000000 Rises=F Damp=F
 DIIS: error= 4.38D-09 at cycle   9 NSaved=   9.
 NSaved= 9 IEnMin= 8 EnMin= -411.593306692084     IErMin= 9 ErrMin= 4.38D-09
 ErrMax= 4.38D-09  0.00D+00 EMaxC= 1.00D-01 BMatC= 8.71D-16 BMatP= 2.74D-14
 IDIUse=1 WtCom= 1.00D+00 WtEn= 0.00D+00
 Coeff-Com: -0.317D-05-0.238D-04 0.235D-03 0.675D-03-0.128D-01 0.218D-01
 Coeff-Com: -0.142D-01-0.387D+00 0.139D+01
[...]
  13        2PY         0.00000   0.00000   0.00000  -0.00493   0.00000
  14        2PZ         0.00041   0.00396  -0.00483   0.00000   0.00646
                           6         7         8         9        10
                           O         O         O         O         O
     Eigenvalues --    -4.35919  -0.90718  -0.43238  -0.24733  -0.22421
   1 1   P  1S          0.00000   0.03266   0.08754   0.00000  -0.03121
   2        2S          0.00000  -0.11570  -0.29881   0.00000   0.10164
   3        2PX         0.97927   0.00000   0.00000  -0.18322   0.00000
   4        2PY         0.00000   0.00000   0.00000   0.00000   0.00000
   5        2PZ         0.00000   0.07897  -0.01881   0.00000   0.19883
   6        3S          0.00000   0.23734   0.91267   0.00000  -0.40211
   7        3PX         0.07042   0.00000   0.00000   0.53360   0.00000
   8        3PY         0.00000   0.00000   0.00000   0.00000   0.00000
   9        3PZ         0.00000  -0.12727   0.04908   0.00000  -0.52750
  10 2   O  1S          0.00000  -0.23356   0.11418   0.00000   0.05505
  11        2S          0.00000   0.85496  -0.53074   0.00000  -0.26641
  12        2PX        -0.00479   0.00000   0.00000   0.78871   0.00000
  13        2PY         0.00000   0.00000   0.00000   0.00000   0.00000
  14        2PZ         0.00000   0.17844   0.27352   0.00000   0.69570
                          11        12        13        14
                           O         O         V         V
     Eigenvalues --    -0.22351  -0.03582   0.04517   0.35017
   1 1   P  1S          0.00000   0.00000   0.00000  -0.02975
   2        2S          0.00000   0.00000   0.00000   0.09277
   3        2PX         0.00000  -0.28706   0.00000   0.00000
   4        2PY        -0.19439   0.00000  -0.28082   0.00000
   5        2PZ         0.00000   0.00000   0.00000  -0.29576
   6        3S          0.00000   0.00000   0.00000  -0.47186
   7        3PX         0.00000   0.89714   0.00000   0.00000
   8        3PY         0.56682   0.00000   0.87644   0.00000
   9        3PZ         0.00000   0.00000   0.00000   1.07514
  10 2   O  1S          0.00000   0.00000   0.00000  -0.08714
  11        2S          0.00000   0.00000   0.00000   0.57485
  12        2PX         0.00000  -0.63017   0.00000   0.00000
  13        2PY         0.76454   0.00000  -0.65929   0.00000
  14        2PZ         0.00000   0.00000   0.00000   0.79150
     Beta Molecular Orbital Coefficients:
                           1         2         3         4         5
                           O         O         O         O         O
     Eigenvalues --   -76.03427 -18.82587  -6.23720  -4.36103  -4.35955
   1 1   P  1S          0.99385  -0.00018  -0.35591   0.00000  -0.00698
   2        2S          0.01856   0.00051   1.03943   0.00000   0.02083
   3        2PX         0.00000   0.00000   0.00000   0.00000   0.00000
   4        2PY         0.00000   0.00000   0.00000   0.97901   0.00000
   5        2PZ        -0.00019  -0.00099  -0.01680   0.00000   0.97699
   6        3S         -0.00287  -0.00507   0.06131   0.00000  -0.00665
   7        3PX         0.00000   0.00000   0.00000   0.00000   0.00000
   8        3PY         0.00000   0.00000   0.00000   0.07123   0.00000
   9        3PZ         0.00042   0.00636  -0.00759   0.00000   0.07977
  10 2   O  1S         -0.00008   0.99382   0.00097   0.00000  -0.00086
  11        2S          0.00071   0.02661  -0.01144   0.00000   0.01803
  12        2PX         0.00000   0.00000   0.00000   0.00000   0.00000
  13        2PY         0.00000   0.00000   0.00000  -0.00490   0.00000
  14        2PZ         0.00041   0.00392  -0.00474   0.00000   0.00640
                           6         7         8         9        10
                           O         O         O         O         O
     Eigenvalues --    -4.34292  -0.88499  -0.40113  -0.21366  -0.21028
   1 1   P  1S          0.00000   0.03288   0.08580   0.00000  -0.03404
   2        2S          0.00000  -0.11650  -0.29322   0.00000   0.11142
   3        2PX         0.97931   0.00000   0.00000   0.00000   0.00000
   4        2PY         0.00000   0.00000   0.00000  -0.19080   0.00000
   5        2PZ         0.00000   0.08147  -0.01721   0.00000   0.19931
   6        3S          0.00000   0.23963   0.89194   0.00000  -0.43081
   7        3PX         0.07031   0.00000   0.00000   0.00000   0.00000
   8        3PY         0.00000   0.00000   0.00000   0.55600   0.00000
   9        3PZ         0.00000  -0.13467   0.04841   0.00000  -0.53066
  10 2   O  1S          0.00000  -0.23195   0.11579   0.00000   0.05389
  11        2S          0.00000   0.84808  -0.53554   0.00000  -0.25959
  12        2PX        -0.00481   0.00000   0.00000   0.00000   0.00000
  13        2PY         0.00000   0.00000   0.00000   0.77259   0.00000
  14        2PZ         0.00000   0.18456   0.30464   0.00000   0.68299
                          11        12        13        14
                           O         V         V         V
     Eigenvalues --    -0.17896   0.05868   0.09605   0.36819
   1 1   P  1S          0.00000   0.00000   0.00000  -0.03091
   2        2S          0.00000   0.00000   0.00000   0.09673
   3        2PX        -0.19007   0.00000  -0.28245   0.00000
   4        2PY         0.00000  -0.28299   0.00000   0.00000
   5        2PZ         0.00000   0.00000   0.00000  -0.29461
   6        3S          0.00000   0.00000   0.00000  -0.48488
   7        3PX         0.55528   0.00000   0.88389   0.00000
   8        3PY         0.00000   0.88336   0.00000   0.00000
   9        3PZ         0.00000   0.00000   0.00000   1.07273
  10 2   O  1S          0.00000   0.00000   0.00000  -0.08907
  11        2S          0.00000   0.00000   0.00000   0.58367
  12        2PX         0.77314   0.00000  -0.64918   0.00000
  13        2PY         0.00000  -0.64983   0.00000   0.00000
  14        2PZ         0.00000   0.00000   0.00000   0.78980
     Alpha Density Matrix:
                           1         2         3         4         5
   1 1   P  1S          1.12413
   2        2S         -0.38466   1.19391
   3        2PX         0.00000   0.00000   1.07495
   4        2PY         0.00000   0.00000   0.00000   0.99609
   5        2PZ        -0.00631   0.01959   0.00000   0.00000   1.00077
   6        3S          0.07539  -0.27705   0.00000   0.00000  -0.08592
   7        3PX         0.00000   0.00000  -0.28634   0.00000   0.00000
   8        3PY         0.00000   0.00000   0.00000  -0.04022   0.00000
   9        3PZ         0.01918  -0.05983   0.00000   0.00000  -0.03757
  10 2   O  1S          0.00004   0.00003   0.00000   0.00000  -0.01152
  11        2S         -0.00551   0.02095   0.00000   0.00000   0.04241
  12        2PX         0.00000   0.00000   0.03170   0.00000   0.00000
  13        2PY         0.00000   0.00000   0.00000  -0.15344   0.00000
  14        2PZ         0.01014  -0.03654   0.00000   0.00000   0.15366
                           6         7         8         9        10
   6        3S          1.05489
   7        3PX         0.00000   1.09454
   8        3PY         0.00000   0.00000   0.32639
   9        3PZ         0.22566   0.00000   0.00000   0.30337
  10 2   O  1S          0.02159   0.00000   0.00000   0.01263   1.05813
  11        2S         -0.17533   0.00000   0.00000   0.00739  -0.24819
  12        2PX         0.00000  -0.14483   0.00000   0.00000   0.00000
  13        2PY         0.00000   0.00000   0.43300   0.00000   0.00000
  14        2PZ         0.01187   0.00000   0.00000  -0.37569   0.03178
                          11        12        13        14
  11        2S          1.08481
  12        2PX         0.00000   1.01920
  13        2PY         0.00000   0.00000   0.58454
  14        2PZ        -0.17767   0.00000   0.00000   0.59074
     Beta Density Matrix:
                           1         2         3         4         5
   1 1   P  1S          1.12406
   2        2S         -0.38443   1.19316
   3        2PX         0.00000   0.00000   0.99517
   4        2PY         0.00000   0.00000   0.00000   0.99486
   5        2PZ        -0.00662   0.02065   0.00000   0.00000   1.00145
   6        3S          0.07444  -0.27392   0.00000   0.00000  -0.08922
   7        3PX         0.00000   0.00000  -0.03668   0.00000   0.00000
   8        3PY         0.00000   0.00000   0.00000  -0.03635   0.00000
   9        3PZ         0.02035  -0.06385   0.00000   0.00000  -0.03951
  10 2   O  1S         -0.00013   0.00057   0.00000   0.00000  -0.01199
  11        2S         -0.00458   0.01782   0.00000   0.00000   0.04435
  12        2PX         0.00000   0.00000  -0.15166   0.00000   0.00000
  13        2PY         0.00000   0.00000   0.00000  -0.15220   0.00000
  14        2PZ         0.01101  -0.03951   0.00000   0.00000   0.15225
                           6         7         8         9        10
   6        3S          1.04243
   7        3PX         0.00000   0.31328
   8        3PY         0.00000   0.00000   0.31421
   9        3PZ         0.23849   0.00000   0.00000   0.30854
  10 2   O  1S          0.01951   0.00000   0.00000   0.01450   1.05779
  11        2S         -0.16356   0.00000   0.00000  -0.00069  -0.24629
  12        2PX         0.00000   0.42897   0.00000   0.00000   0.00000
  13        2PY         0.00000   0.00000   0.42921   0.00000   0.00000
  14        2PZ         0.02136   0.00000   0.00000  -0.37197   0.03316
                          11        12        13        14
  11        2S          1.07460
  12        2PX         0.00000   0.59777
  13        2PY         0.00000   0.00000   0.59692
  14        2PZ        -0.18365   0.00000   0.00000   0.59342
    Full Mulliken population analysis:
                           1         2         3         4         5
   1 1   P  1S          2.24818
   2        2S         -0.25041   2.38707
   3        2PX         0.00000   0.00000   2.07011
   4        2PY         0.00000   0.00000   0.00000   1.99095
   5        2PZ         0.00000   0.00000   0.00000   0.00000   2.00222
   6        3S          0.00209  -0.13672   0.00000   0.00000   0.00000
   7        3PX         0.00000   0.00000  -0.08477   0.00000   0.00000
   8        3PY         0.00000   0.00000   0.00000  -0.02009   0.00000
   9        3PZ         0.00000   0.00000   0.00000   0.00000  -0.02023
  10 2   O  1S          0.00000   0.00000   0.00000   0.00000   0.00000
  11        2S         -0.00002   0.00089   0.00000   0.00000  -0.00170
  12        2PX         0.00000   0.00000  -0.00074   0.00000   0.00000
  13        2PY         0.00000   0.00000   0.00000  -0.00189   0.00000
  14        2PZ         0.00010  -0.00318   0.00000   0.00000  -0.00977
                           6         7         8         9        10
   6        3S          2.09731
   7        3PX         0.00000   1.40782
   8        3PY         0.00000   0.00000   0.64060
   9        3PZ         0.00000   0.00000   0.00000   0.61191
  10 2   O  1S          0.00101   0.00000   0.00000  -0.00112   2.11592
  11        2S         -0.08904   0.00000   0.00000  -0.00248  -0.11704
  12        2PX         0.00000   0.03806   0.00000   0.00000   0.00000
  13        2PY         0.00000   0.00000   0.11548   0.00000   0.00000
  14        2PZ         0.00766   0.00000   0.00000   0.21687   0.00000
                          11        12        13        14
  11        2S          2.15941
  12        2PX         0.00000   1.61697
  13        2PY         0.00000   0.00000   1.18146
  14        2PZ         0.00000   0.00000   0.00000   1.18415
     Gross orbital populations:
                         Total     Alpha     Beta      Spin
   1 1   P  1S          1.99994   0.99997   0.99997   0.00000
   2        2S          1.99764   0.99887   0.99877   0.00009
   3        2PX         1.98460   1.00000   0.98460   0.01540
   4        2PY         1.96896   0.98458   0.98438   0.00021
   5        2PZ         1.97052   0.98517   0.98535  -0.00018
   6        3S          1.88232   0.94439   0.93792   0.00647
   7        3PX         1.36111   1.00000   0.36111   0.63889
   8        3PY         0.73599   0.37383   0.36216   0.01168
   9        3PZ         0.80495   0.39923   0.40572  -0.00649
  10 2   O  1S          1.99877   0.99940   0.99938   0.00002
  11        2S          1.95002   0.97690   0.97311   0.00379
  12        2PX         1.65429   1.00000   0.65429   0.34571
  13        2PY         1.29505   0.64158   0.65347  -0.01188
  14        2PZ         1.39584   0.69606   0.69978  -0.00371
          Condensed to atoms (all electrons):
               1          2
     1  P   14.435900   0.270132
     2  O    0.270132   8.023836
          Atomic-Atomic Spin Densities.
               1          2
     1  P    0.748164  -0.082094
     2  O   -0.082094   0.416024
 Mulliken charges and spin densities:
               1          2
     1  P    0.293968   0.666070
     2  O   -0.293968   0.333930
 Sum of Mulliken charges =   0.00000   1.00000
 Mulliken charges and spin densities with hydrogens summed into heavy atoms:
               1          2
     1  P    0.293968   0.666070
     2  O   -0.293968   0.333930
 Electronic spatial extent (au):  <R**2>=             78.4098
 Charge=              0.0000 electrons
 Dipole moment (field-independent basis, Debye):
    X=              0.0000    Y=              0.0000    Z=              1.0982  Tot=              1.0982
 Quadrupole moment (field-independent basis, Debye-Ang):
   XX=            -15.0126   YY=            -13.3579   ZZ=            -16.8819
   XY=              0.0000   XZ=              0.0000   YZ=              0.0000
 Traceless Quadrupole moment (field-independent basis, Debye-Ang):
   XX=              0.0715   YY=              1.7263   ZZ=             -1.7977
   XY=              0.0000   XZ=              0.0000   YZ=              0.0000
 Octapole moment (field-independent basis, Debye-Ang**2):
  XXX=              0.0000  YYY=              0.0000  ZZZ=             -1.7839  XYY=              0.0000
  XXY=              0.0000  XXZ=             -1.5163  XZZ=              0.0000  YZZ=              0.0000
  YYZ=             -0.9126  XYZ=              0.0000
 Hexadecapole moment (field-independent basis, Debye-Ang**3):
 XXXX=            -12.6651 YYYY=            -10.3462 ZZZZ=            -60.2417 XXXY=              0.0000
 XXXZ=              0.0000 YYYX=              0.0000 YYYZ=              0.0000 ZZZX=              0.0000
 ZZZY=              0.0000 XXYY=             -3.8352 XXZZ=            -12.1077 YYZZ=            -10.9726
 XXYZ=              0.0000 YYXZ=              0.0000 ZZXY=              0.0000
 N-N= 4.096706180069D+01 E-N=-1.060771525027D+03  KE= 4.063330779234D+02
 Symmetry A1   KE= 3.406662419696D+02
 Symmetry A2   KE= 0.000000000000D+00
 Symmetry B1   KE= 3.411767138210D+01
 Symmetry B2   KE= 3.154916457167D+01
 Orbital energies and kinetic energies (alpha):
                                 1                 2
   1         O               -76.038153        102.651843
   2         O               -18.831909         28.632775
   3         O                -6.242493         17.993114
   4         O                -4.363861         13.571998
   5         O                -4.362044         13.533260
   6         O                -4.359188         13.580364
   7         O                -0.907176          2.674152
   8         O                -0.432379          2.482204
   9         O                -0.247327          2.215449
  10         O                -0.224211          2.372960
  11         O                -0.223511          2.198863
  12         O                -0.035821          2.538174
  13         V                 0.045167          2.563127
  14         V                 0.350172          3.607122
 Orbital energies and kinetic energies (beta):
                                 1                 2
   1         O               -76.034273        102.654221
   2         O               -18.825873         28.637627
   3         O                -6.237197         17.995583
   4         O                -4.361031         13.573922
   5         O                -4.359549         13.534970
   6         O                -4.342922         13.581175
   7         O                -0.884989          2.659403
   8         O                -0.401127          2.480538
   9         O                -0.213661          2.204382
  10         O                -0.210283          2.363591
  11         O                -0.178964          2.202510
  12         V                 0.058678          2.555683
  13         V                 0.096048          2.550303
  14         V                 0.368190          3.621499
 Total kinetic energy from orbitals= 4.063330779234D+02
                          Isotropic Fermi Contact Couplings
        Atom                 a.u.       MegaHertz       Gauss      10(-4) cm-1
     1  P(31)              0.03238      58.63805      20.92351      19.55955
     2  O(17)              0.02420     -14.67086      -5.23493      -4.89367
 --------------------------------------------------------
       Center         ----  Spin Dipole Couplings  ----
                      3XX-RR        3YY-RR        3ZZ-RR
 --------------------------------------------------------
     1   Atom        2.367902     -1.151976     -1.215926
     2   Atom        1.149680     -0.609964     -0.539717
 --------------------------------------------------------
                        XY            XZ            YZ
 --------------------------------------------------------
     1   Atom        0.000000      0.000000      0.000000
     2   Atom        0.000000      0.000000      0.000000
 --------------------------------------------------------


 ---------------------------------------------------------------------------------
              Anisotropic Spin Dipole Couplings in Principal Axis System
 ---------------------------------------------------------------------------------

       Atom             a.u.   MegaHertz   Gauss  10(-4) cm-1        Axes

              Baa    -1.2159  -262.863   -93.796   -87.682  0.0000  0.0000  1.0000
     1 P(31)  Bbb    -1.1520  -249.039   -88.863   -83.070  0.0000  1.0000  0.0000
              Bcc     2.3679   511.902   182.659   170.752  1.0000  0.0000  0.0000
 
              Baa    -0.6100    44.137    15.749    14.722  0.0000  1.0000  0.0000
     2 O(17)  Bbb    -0.5397    39.054    13.935    13.027  0.0000  0.0000  1.0000
              Bcc     1.1497   -83.190   -29.684   -27.749  1.0000  0.0000  0.0000
 

 ---------------------------------------------------------------------------------

 No NMR shielding tensors so no spin-rotation constants.
 Leave Link  601 at Wed Apr  8 12:54:02 2026, MaxMem=    33554432 cpu:         0.0
 (Enter /opt/g09/g09/l9999.exe)
 1\1\GINC-KADET27\FOpt\UB3LYP\STO-3G\O1P1(2)\MDOROHUN\08-Apr-2026\0\\#p
  UB3LYP/STO-3G Opt Pop=Full\\PO optymalizacja baza STO-3G\\0,2\P,0.,0.
 ,-0.0250283062\O,0.,0.,1.5250283062\\Version=ES64L-G09RevD.01\HF=-411.
 5933067\S2=0.750357\S2-1=0.\S2A=0.75\RMSD=8.534e-09\RMSF=3.198e-06\Dip
 ole=0.,0.,-0.432079\Quadrupole=0.0531419,1.2834249,-1.3365668,0.,0.,0.
 \PG=C*V [C*(O1P1)]\\@


 I (ERNEST RUTHERFORD) CAME INTO THE ROOM, WHICH WAS HALF DARK, AND PRESENTLY
 SPOTTED LORD KELVIN IN THE AUDIENCE AND REALIZED I WAS IN TROUBLE AT
 THE LAST PART OF MY SPEECH DEALING THE AGE OF THE EARTH, WHERE MY VIEWS
 CONFLICTED WITH HIS.  TO MY RELIEF KELVIN FELL FAST ASLEEP, BUT AS I CAME
 TO THE IMPORTANT POINT, I SAW THE OLD BIRD SIT UP AND COCK A BALEFUL GLANCE
 AT ME! THEN A SUDDEN INSPIRATION CAME AND I SAID LORD KELVIN HAD LIMITED
 THE AGE OF THE EARTH PROVIDED NO NEW SOURCE WAS DISCOVERED. THAT
 PROPHETIC UTTERANCE REFERS TO WHAT WE ARE NOW CONSIDERING TONIGHT, RADIUM!
 BEHOLD!  THE OLD BOY BEAMED UPON ME.
 Job cpu time:       0 days  0 hours  0 minutes  1.1 seconds.
 File lengths (MBytes):  RWF=      5 Int=      0 D2E=      0 Chk=      1 Scr=      1
 Normal termination of Gaussian 09 at Wed Apr  8 12:54:02 2026.
