 Entering Gaussian System, Link 0=/opt/g09/g09/g09
 Input=b-ala_after_opt.inp
 Output=b-ala_after_opt.log
 Initial command:
 /opt/g09/g09/l1.exe "/tmp/Gau-12973.inp" -scrdir="/tmp/"
 Entering Link 1 = /opt/g09/g09/l1.exe PID=     12975.
  
 Copyright (c) 1988,1990,1992,1993,1995,1998,2003,2009,2013,
            Gaussian, Inc.  All Rights Reserved.
  
 This is part of the Gaussian(R) 09 program.  It is based on
 the Gaussian(R) 03 system (copyright 2003, Gaussian, Inc.),
 the Gaussian(R) 98 system (copyright 1998, Gaussian, Inc.),
 the Gaussian(R) 94 system (copyright 1995, Gaussian, Inc.),
 the Gaussian 92(TM) system (copyright 1992, Gaussian, Inc.),
 the Gaussian 90(TM) system (copyright 1990, Gaussian, Inc.),
 the Gaussian 88(TM) system (copyright 1988, Gaussian, Inc.),
 the Gaussian 86(TM) system (copyright 1986, Carnegie Mellon
 University), and the Gaussian 82(TM) system (copyright 1983,
 Carnegie Mellon University). Gaussian is a federally registered
 trademark of Gaussian, Inc.
  
 This software contains proprietary and confidential information,
 including trade secrets, belonging to Gaussian, Inc.
  
 This software is provided under written license and may be
 used, copied, transmitted, or stored only in accord with that
 written license.
  
 The following legend is applicable only to US Government
 contracts under FAR:
  
                    RESTRICTED RIGHTS LEGEND
  
 Use, reproduction and disclosure by the US Government is
 subject to restrictions as set forth in subparagraphs (a)
 and (c) of the Commercial Computer Software - Restricted
 Rights clause in FAR 52.227-19.
  
 Gaussian, Inc.
 340 Quinnipiac St., Bldg. 40, Wallingford CT 06492
  
  
 ---------------------------------------------------------------
 Warning -- This program may not be used in any manner that
 competes with the business of Gaussian, Inc. or will provide
 assistance to any competitor of Gaussian, Inc.  The licensee
 of this program is prohibited from giving any competitor of
 Gaussian, Inc. access to this program.  By using this program,
 the user acknowledges that Gaussian, Inc. is engaged in the
 business of creating and licensing software in the field of
 computational chemistry and represents and warrants to the
 licensee that it is not a competitor of Gaussian, Inc. and that
 it will not use this program in any manner prohibited above.
 ---------------------------------------------------------------
  

 Cite this work as:
 Gaussian 09, Revision D.01,
 M. J. Frisch, G. W. Trucks, H. B. Schlegel, G. E. Scuseria, 
 M. A. Robb, J. R. Cheeseman, G. Scalmani, V. Barone, B. Mennucci, 
 G. A. Petersson, H. Nakatsuji, M. Caricato, X. Li, H. P. Hratchian, 
 A. F. Izmaylov, J. Bloino, G. Zheng, J. L. Sonnenberg, M. Hada, 
 M. Ehara, K. Toyota, R. Fukuda, J. Hasegawa, M. Ishida, T. Nakajima, 
 Y. Honda, O. Kitao, H. Nakai, T. Vreven, J. A. Montgomery, Jr., 
 J. E. Peralta, F. Ogliaro, M. Bearpark, J. J. Heyd, E. Brothers, 
 K. N. Kudin, V. N. Staroverov, T. Keith, R. Kobayashi, J. Normand, 
 K. Raghavachari, A. Rendell, J. C. Burant, S. S. Iyengar, J. Tomasi, 
 M. Cossi, N. Rega, J. M. Millam, M. Klene, J. E. Knox, J. B. Cross, 
 V. Bakken, C. Adamo, J. Jaramillo, R. Gomperts, R. E. Stratmann, 
 O. Yazyev, A. J. Austin, R. Cammi, C. Pomelli, J. W. Ochterski, 
 R. L. Martin, K. Morokuma, V. G. Zakrzewski, G. A. Voth, 
 P. Salvador, J. J. Dannenberg, S. Dapprich, A. D. Daniels, 
 O. Farkas, J. B. Foresman, J. V. Ortiz, J. Cioslowski, 
 and D. J. Fox, Gaussian, Inc., Wallingford CT, 2013.
 
 ******************************************
 Gaussian 09:  ES64L-G09RevD.01 24-Apr-2013
                29-Apr-2026 
 ******************************************
 -----------------------------------------------
 #P RHF/def2SVP Pop(Full,ESP) GFInput IOP(6/7=3)
 -----------------------------------------------
 1/38=1/1;
 2/12=2,17=6,18=5,40=1/2;
 3/5=43,7=101,11=1,16=1,24=10,25=1,30=1,116=1/1,2,3;
 4//1;
 5/5=2,38=5/2;
 6/7=3,15=8,28=1/1,2;
 99/5=1,9=1/99;
 Leave Link    1 at Wed Apr 29 13:38:34 2026, MaxMem=           0 cpu:         0.0
 (Enter /opt/g09/g09/l101.exe)
 -------------------------------------------
 ESP dla struktury zoptymalizowanej bez wody
 -------------------------------------------
 Symbolic Z-matrix:
 Charge =  0 Multiplicity = 1
 c
 c                    1    cc2
 n                    2    nc3      1    ncc3
 c                    1    cc4      2    ccc4     3    dih4     0
 o                    4    oc5      1    occ5     2    dih5     0
 o                    4    oc6      1    occ6     2    dih6     0
 h                    3    hn7      2    hnc7     1    dih7     0
 h                    3    hn8      2    hnc8     1    dih8     0
 h                    5    ho9      4    hoc9     1    dih9     0
 h                    2    hc10     1    hcc10    4    dih10    0
 h                    2    hc11     1    hcc11    4    dih11    0
 h                    1    hc12     4    hcc12    6    dih12    0
 h                    1    hc13     4    hcc13    6    dih13    0
       Variables:
  cc2                   1.52763                  
  nc3                   1.4569                   
  ncc3                111.056                    
  cc4                   1.52206                  
  ccc4                115.626                    
  dih4                 64.697                    
  oc5                   1.31821                  
  occ5                116.097                    
  dih5                -38.725                    
  oc6                   1.18038                  
  occ6                122.052                    
  dih6                142.71                     
  hn7                   1.00559                  
  hnc7                111.483                    
  dih7                 73.204                    
  hn8                   1.00415                  
  hnc8                111.824                    
  dih8               -166.655                    
  ho9                   0.95795                  
  hoc9                111.305                    
  dih9                  3.078                    
  hc10                  1.09443                  
  hcc10               108.783                    
  dih10              -170.63                     
  hc11                  1.09154                  
  hcc11               109.508                    
  dih11               -54.478                    
  hc12                  1.09511                  
  hcc12               107.104                    
  dih12               -94.856                    
  hc13                  1.08782                  
  hcc13               106.743                    
  dih13                19.196                    
 
 NAtoms=     13 NQM=       13 NQMF=       0 NMMI=      0 NMMIF=      0
                NMic=       0 NMicF=      0.
                    Isotopes and Nuclear Properties:
 (Nuclear quadrupole moments (NQMom) in fm**2, nuclear magnetic moments (NMagM)
  in nuclear magnetons)

  Atom         1           2           3           4           5           6           7           8           9          10
 IAtWgt=          12          12          14          12          16          16           1           1           1           1
 AtmWgt=  12.0000000  12.0000000  14.0030740  12.0000000  15.9949146  15.9949146   1.0078250   1.0078250   1.0078250   1.0078250
 NucSpn=           0           0           2           0           0           0           1           1           1           1
 AtZEff=   0.0000000   0.0000000   0.0000000   0.0000000   0.0000000   0.0000000   0.0000000   0.0000000   0.0000000   0.0000000
 NQMom=    0.0000000   0.0000000   2.0440000   0.0000000   0.0000000   0.0000000   0.0000000   0.0000000   0.0000000   0.0000000
 NMagM=    0.0000000   0.0000000   0.4037610   0.0000000   0.0000000   0.0000000   2.7928460   2.7928460   2.7928460   2.7928460
 AtZNuc=   6.0000000   6.0000000   7.0000000   6.0000000   8.0000000   8.0000000   1.0000000   1.0000000   1.0000000   1.0000000

  Atom        11          12          13
 IAtWgt=           1           1           1
 AtmWgt=   1.0078250   1.0078250   1.0078250
 NucSpn=           1           1           1
 AtZEff=   0.0000000   0.0000000   0.0000000
 NQMom=    0.0000000   0.0000000   0.0000000
 NMagM=    2.7928460   2.7928460   2.7928460
 AtZNuc=   1.0000000   1.0000000   1.0000000
 Leave Link  101 at Wed Apr 29 13:38:35 2026, MaxMem=    33554432 cpu:         0.1
 (Enter /opt/g09/g09/l202.exe)
                          Input orientation:                          
 ---------------------------------------------------------------------
 Center     Atomic      Atomic             Coordinates (Angstroms)
 Number     Number       Type             X           Y           Z
 ---------------------------------------------------------------------
      1          6           0        0.000000    0.000000    0.000000
      2          6           0        0.000000    0.000000    1.527632
      3          7           0        1.359621    0.000000    2.051067
      4          6           0        0.586548   -1.240684   -0.658284
      5          8           0        1.650255   -1.757943   -0.076356
      6          8           0        0.132845   -1.699142   -1.646851
      7          1           0        1.800452    0.895812    1.931041
      8          1           0        1.382124   -0.215160    3.031632
      9          1           0        1.872686   -1.284602    0.726229
     10          1           0       -0.589454    0.852137    1.880021
     11          1           0       -0.501558   -0.898353    1.892140
     12          1           0        0.570763    0.859600   -0.366845
     13          1           0       -1.012277    0.109126   -0.383056
 ---------------------------------------------------------------------
                    Distance matrix (angstroms):
                    1          2          3          4          5
     1  C    0.000000
     2  C    1.527632   0.000000
     3  N    2.460782   1.456899   0.000000
     4  C    1.522062   2.581001   3.078558   0.000000
     5  O    2.412371   2.895942   2.775024   1.318207   0.000000
     6  O    2.369989   3.603064   4.250489   1.180379   2.184593
     7  H    2.788015   2.051060   1.005593   3.569704   3.330859
     8  H    3.338765   2.053917   1.004145   3.911537   3.480181
     9  H    2.384232   2.408195   1.915368   1.890227   0.957951
    10  H    2.146642   1.094427   2.134078   3.493690   3.956794
    11  H    2.153785   1.091542   2.072748   2.793891   3.040423
    12  H    1.095106   2.157249   2.684680   2.120466   2.846263
    13  H    1.087817   2.165027   3.400407   2.110445   3.266357
                    6          7          8          9         10
     6  O    0.000000
     7  H    4.723983   0.000000
     8  H    5.064692   1.618813   0.000000
     9  H    2.971599   2.492187   2.588289   0.000000
    10  H    4.412433   2.390849   2.520406   3.458182   0.000000
    11  H    3.683502   2.918868   2.305093   2.673120   1.752737
    12  H    2.894365   2.606478   3.655551   2.736314   2.528747
    13  H    2.485621   3.726308   4.183110   3.390576   2.419166
                   11         12         13
    11  H    0.000000
    12  H    3.056678   0.000000
    13  H    2.540150   1.751997   0.000000
 Stoichiometry    C3H7NO2
 Framework group  C1[X(C3H7NO2)]
 Deg. of freedom    33
 Full point group                 C1      NOp   1
 Largest Abelian subgroup         C1      NOp   1
 Largest concise Abelian subgroup C1      NOp   1
                         Standard orientation:                         
 ---------------------------------------------------------------------
 Center     Atomic      Atomic             Coordinates (Angstroms)
 Number     Number       Type             X           Y           Z
 ---------------------------------------------------------------------
      1          6           0        0.021352   -0.964774    0.312200
      2          6           0        1.359375   -0.676392   -0.366174
      3          7           0        1.939857    0.565193    0.127851
      4          6           0       -1.090808    0.034034    0.025573
      5          8           0       -0.730886    1.300632   -0.036523
      6          8           0       -2.214750   -0.301098   -0.107598
      7          1           0        2.299004    0.458120    1.061000
      8          1           0        2.698725    0.878484   -0.450315
      9          1           0        0.216459    1.398712    0.066369
     10          1           0        2.019132   -1.538065   -0.224720
     11          1           0        1.207710   -0.572917   -1.442164
     12          1           0        0.158807   -0.990841    1.398333
     13          1           0       -0.353266   -1.943332    0.019915
 ---------------------------------------------------------------------
 Rotational constants (GHZ):      7.3514693      2.4953066      1.9903070
 Leave Link  202 at Wed Apr 29 13:38:35 2026, MaxMem=    33554432 cpu:         0.0
 (Enter /opt/g09/g09/l301.exe)
 Standard basis: def2SVP (5D, 7F)
 Ernie: Thresh=  0.10000D-02 Tol=  0.10000D-05 Strict=F.
 AO basis set in the form of general basis input (Overlap normalization):
      1 0
 S   5 1.00       0.000000000000
      0.1238401694D+04  0.5517365048D-02
      0.1862900499D+03  0.4108882856D-01
      0.4225117635D+02  0.1822538213D+00
      0.1167655793D+02  0.4682845944D+00
      0.3593050648D+01  0.4457581734D+00
 S   1 1.00       0.000000000000
      0.4024514736D+00  0.1000000000D+01
 S   1 1.00       0.000000000000
      0.1309018267D+00  0.1000000000D+01
 P   3 1.00       0.000000000000
      0.9468097062D+01  0.5688833201D-01
      0.2010354514D+01  0.3129405934D+00
      0.5477100471D+00  0.7606501651D+00
 P   1 1.00       0.000000000000
      0.1526861379D+00  0.1000000000D+01
 D   1 1.00       0.000000000000
      0.8000000000D+00  0.1000000000D+01
 ****
      2 0
 S   5 1.00       0.000000000000
      0.1238401694D+04  0.5517365048D-02
      0.1862900499D+03  0.4108882856D-01
      0.4225117635D+02  0.1822538213D+00
      0.1167655793D+02  0.4682845944D+00
      0.3593050648D+01  0.4457581734D+00
 S   1 1.00       0.000000000000
      0.4024514736D+00  0.1000000000D+01
 S   1 1.00       0.000000000000
      0.1309018267D+00  0.1000000000D+01
 P   3 1.00       0.000000000000
      0.9468097062D+01  0.5688833201D-01
      0.2010354514D+01  0.3129405934D+00
      0.5477100471D+00  0.7606501651D+00
 P   1 1.00       0.000000000000
      0.1526861379D+00  0.1000000000D+01
 D   1 1.00       0.000000000000
      0.8000000000D+00  0.1000000000D+01
 ****
      3 0
 S   5 1.00       0.000000000000
      0.1712841585D+04 -0.5447799580D-02
      0.2576481268D+03 -0.4062717463D-01
      0.5845824585D+02 -0.1811196225D+00
      0.1619836791D+02 -0.4684397556D+00
      0.5005260081D+01 -0.4461684629D+00
 S   1 1.00       0.000000000000
      0.5873185657D+00  0.1000000000D+01
 S   1 1.00       0.000000000000
      0.1876459225D+00  0.1000000000D+01
 P   3 1.00       0.000000000000
      0.1357147023D+02 -0.5884811697D-01
      0.2925737287D+01 -0.3202462476D+00
      0.7992775075D+00 -0.7532822652D+00
 P   1 1.00       0.000000000000
      0.2195434803D+00  0.1000000000D+01
 D   1 1.00       0.000000000000
      0.1000000000D+01  0.1000000000D+01
 ****
      4 0
 S   5 1.00       0.000000000000
      0.1238401694D+04  0.5517365048D-02
      0.1862900499D+03  0.4108882856D-01
      0.4225117635D+02  0.1822538213D+00
      0.1167655793D+02  0.4682845944D+00
      0.3593050648D+01  0.4457581734D+00
 S   1 1.00       0.000000000000
      0.4024514736D+00  0.1000000000D+01
 S   1 1.00       0.000000000000
      0.1309018267D+00  0.1000000000D+01
 P   3 1.00       0.000000000000
      0.9468097062D+01  0.5688833201D-01
      0.2010354514D+01  0.3129405934D+00
      0.5477100471D+00  0.7606501651D+00
 P   1 1.00       0.000000000000
      0.1526861379D+00  0.1000000000D+01
 D   1 1.00       0.000000000000
      0.8000000000D+00  0.1000000000D+01
 ****
      5 0
 S   5 1.00       0.000000000000
      0.2266176779D+04 -0.5389350392D-02
      0.3408701019D+03 -0.4023472139D-01
      0.7736313517D+02 -0.1800818421D+00
      0.2147964494D+02 -0.4682885766D+00
      0.6658943312D+01 -0.4469261716D+00
 S   1 1.00       0.000000000000
      0.8097597567D+00  0.1000000000D+01
 S   1 1.00       0.000000000000
      0.2553077223D+00  0.1000000000D+01
 P   3 1.00       0.000000000000
      0.1772150432D+02  0.6263024876D-01
      0.3863550544D+01  0.3333113848D+00
      0.1048092088D+01  0.7414863831D+00
 P   1 1.00       0.000000000000
      0.2764154441D+00  0.1000000000D+01
 D   1 1.00       0.000000000000
      0.1200000000D+01  0.1000000000D+01
 ****
      6 0
 S   5 1.00       0.000000000000
      0.2266176779D+04 -0.5389350392D-02
      0.3408701019D+03 -0.4023472139D-01
      0.7736313517D+02 -0.1800818421D+00
      0.2147964494D+02 -0.4682885766D+00
      0.6658943312D+01 -0.4469261716D+00
 S   1 1.00       0.000000000000
      0.8097597567D+00  0.1000000000D+01
 S   1 1.00       0.000000000000
      0.2553077223D+00  0.1000000000D+01
 P   3 1.00       0.000000000000
      0.1772150432D+02  0.6263024876D-01
      0.3863550544D+01  0.3333113848D+00
      0.1048092088D+01  0.7414863831D+00
 P   1 1.00       0.000000000000
      0.2764154441D+00  0.1000000000D+01
 D   1 1.00       0.000000000000
      0.1200000000D+01  0.1000000000D+01
 ****
      7 0
 S   3 1.00       0.000000000000
      0.1301070100D+02  0.3348548481D-01
      0.1962257200D+01  0.2347218709D+00
      0.4445379600D+00  0.8137702853D+00
 S   1 1.00       0.000000000000
      0.1219496200D+00  0.1000000000D+01
 P   1 1.00       0.000000000000
      0.8000000000D+00  0.1000000000D+01
 ****
      8 0
 S   3 1.00       0.000000000000
      0.1301070100D+02  0.3348548481D-01
      0.1962257200D+01  0.2347218709D+00
      0.4445379600D+00  0.8137702853D+00
 S   1 1.00       0.000000000000
      0.1219496200D+00  0.1000000000D+01
 P   1 1.00       0.000000000000
      0.8000000000D+00  0.1000000000D+01
 ****
      9 0
 S   3 1.00       0.000000000000
      0.1301070100D+02  0.3348548481D-01
      0.1962257200D+01  0.2347218709D+00
      0.4445379600D+00  0.8137702853D+00
 S   1 1.00       0.000000000000
      0.1219496200D+00  0.1000000000D+01
 P   1 1.00       0.000000000000
      0.8000000000D+00  0.1000000000D+01
 ****
     10 0
 S   3 1.00       0.000000000000
      0.1301070100D+02  0.3348548481D-01
      0.1962257200D+01  0.2347218709D+00
      0.4445379600D+00  0.8137702853D+00
 S   1 1.00       0.000000000000
      0.1219496200D+00  0.1000000000D+01
 P   1 1.00       0.000000000000
      0.8000000000D+00  0.1000000000D+01
 ****
     11 0
 S   3 1.00       0.000000000000
      0.1301070100D+02  0.3348548481D-01
      0.1962257200D+01  0.2347218709D+00
      0.4445379600D+00  0.8137702853D+00
 S   1 1.00       0.000000000000
      0.1219496200D+00  0.1000000000D+01
 P   1 1.00       0.000000000000
      0.8000000000D+00  0.1000000000D+01
 ****
     12 0
 S   3 1.00       0.000000000000
      0.1301070100D+02  0.3348548481D-01
      0.1962257200D+01  0.2347218709D+00
      0.4445379600D+00  0.8137702853D+00
 S   1 1.00       0.000000000000
      0.1219496200D+00  0.1000000000D+01
 P   1 1.00       0.000000000000
      0.8000000000D+00  0.1000000000D+01
 ****
     13 0
 S   3 1.00       0.000000000000
      0.1301070100D+02  0.3348548481D-01
      0.1962257200D+01  0.2347218709D+00
      0.4445379600D+00  0.8137702853D+00
 S   1 1.00       0.000000000000
      0.1219496200D+00  0.1000000000D+01
 P   1 1.00       0.000000000000
      0.8000000000D+00  0.1000000000D+01
 ****

 There are   125 symmetry adapted cartesian basis functions of A   symmetry.
 There are   119 symmetry adapted basis functions of A   symmetry.
   119 basis functions,   199 primitive gaussians,   125 cartesian basis functions
    24 alpha electrons       24 beta electrons
       nuclear repulsion energy       248.8626706888 Hartrees.
 IExCor=    0 DFT=F Ex=HF Corr=None ExCW=0 ScaHFX=  1.000000
 ScaDFX=  1.000000  1.000000  1.000000  1.000000 ScalE2=  1.000000  1.000000
 IRadAn=      0 IRanWt=     -1 IRanGd=            0 ICorTp=0 IEmpDi=  4
 NAtoms=   13 NActive=   13 NUniq=   13 SFac= 1.00D+00 NAtFMM=   60 NAOKFM=F Big=F
 Integral buffers will be    131072 words long.
 Raffenetti 1 integral format.
 Two-electron integral symmetry is turned on.
 Leave Link  301 at Wed Apr 29 13:38:35 2026, MaxMem=    33554432 cpu:         0.0
 (Enter /opt/g09/g09/l302.exe)
 NPDir=0 NMtPBC=     1 NCelOv=     1 NCel=       1 NClECP=     1 NCelD=      1
         NCelK=      1 NCelE2=     1 NClLst=     1 CellRange=     0.0.
 One-electron integrals computed using PRISM.
   1 Symmetry operations used in ECPInt.
 ECPInt:  NShTT=    1653 NPrTT=    5877 LenC2=    1645 LenP2D=    4939.
 LDataN:  DoStor=T MaxTD1= 4 Len=   56
 NBasis=   119 RedAO= T EigKep=  2.15D-03  NBF=   119
 NBsUse=   119 1.00D-06 EigRej= -1.00D+00 NBFU=   119
 Leave Link  302 at Wed Apr 29 13:38:35 2026, MaxMem=    33554432 cpu:         0.0
 (Enter /opt/g09/g09/l303.exe)
 DipDrv:  MaxL=1.
 Leave Link  303 at Wed Apr 29 13:38:35 2026, MaxMem=    33554432 cpu:         0.0
 (Enter /opt/g09/g09/l401.exe)
 ExpMin= 1.22D-01 ExpMax= 2.27D+03 ExpMxC= 3.41D+02 IAcc=1 IRadAn=         1 AccDes= 0.00D+00
 Harris functional with IExCor=  205 and IRadAn=       1 diagonalized for initial guess.
 HarFok:  IExCor=  205 AccDes= 0.00D+00 IRadAn=         1 IDoV= 1 UseB2=F ITyADJ=14
 ICtDFT=  3500011 ScaDFX=  1.000000  1.000000  1.000000  1.000000
 FoFCou: FMM=F IPFlag=           0 FMFlag=      100000 FMFlg1=           0
         NFxFlg=           0 DoJE=T BraDBF=F KetDBF=T FulRan=T
         wScrn=  0.000000 ICntrl=     500 IOpCl=  0 I1Cent=   200000004 NGrid=           0
         NMat0=    1 NMatS0=      1 NMatT0=    0 NMatD0=    1 NMtDS0=    0 NMtDT0=    0
 Petite list used in FoFCou.
 Harris En= -322.004474085788    
 JPrj=0 DoOrth=F DoCkMO=F.
 Leave Link  401 at Wed Apr 29 13:38:35 2026, MaxMem=    33554432 cpu:         0.1
 (Enter /opt/g09/g09/l502.exe)
 Closed shell SCF:
 Using DIIS extrapolation, IDIIS=  1040.
 Integral symmetry usage will be decided dynamically.
 Keep R1 ints in memory in canonical form, NReq=26560622.
 IVT=       67127 IEndB=       67127 NGot=    33554432 MDV=     7993936
 LenX=     7993936 LenY=     7977870
 Requested convergence on RMS density matrix=1.00D-08 within 128 cycles.
 Requested convergence on MAX density matrix=1.00D-06.
 Requested convergence on             energy=1.00D-06.
 No special actions if energy rises.
 FoFCou: FMM=F IPFlag=           0 FMFlag=           0 FMFlg1=           0
         NFxFlg=           0 DoJE=F BraDBF=F KetDBF=F FulRan=T
         wScrn=  0.000000 ICntrl=     600 IOpCl=  0 I1Cent=           0 NGrid=           0
         NMat0=    1 NMatS0=   7140 NMatT0=    0 NMatD0=    1 NMtDS0=    0 NMtDT0=    0
 Symmetry not used in FoFCou.

 Cycle   1  Pass 1  IDiag  1:
 E= -321.392458411850    
 DIIS: error= 3.17D-02 at cycle   1 NSaved=   1.
 NSaved= 1 IEnMin= 1 EnMin= -321.392458411850     IErMin= 1 ErrMin= 3.17D-02
 ErrMax= 3.17D-02  0.00D+00 EMaxC= 1.00D-01 BMatC= 3.40D-01 BMatP= 3.40D-01
 IDIUse=3 WtCom= 6.83D-01 WtEn= 3.17D-01
 Coeff-Com:  0.100D+01
 Coeff-En:   0.100D+01
 Coeff:      0.100D+01
 Gap=     0.613 Goal=   None    Shift=    0.000
 GapD=    0.613 DampG=2.000 DampE=0.500 DampFc=1.0000 IDamp=-1.
 RMSDP=5.79D-03 MaxDP=1.16D-01              OVMax= 1.10D-01

 Cycle   2  Pass 1  IDiag  1:
 E= -321.584843688023     Delta-E=       -0.192385276173 Rises=F Damp=F
 DIIS: error= 1.49D-02 at cycle   2 NSaved=   2.
 NSaved= 2 IEnMin= 2 EnMin= -321.584843688023     IErMin= 2 ErrMin= 1.49D-02
 ErrMax= 1.49D-02  0.00D+00 EMaxC= 1.00D-01 BMatC= 5.72D-02 BMatP= 3.40D-01
 IDIUse=3 WtCom= 8.51D-01 WtEn= 1.49D-01
 Coeff-Com:  0.248D+00 0.752D+00
 Coeff-En:   0.000D+00 0.100D+01
 Coeff:      0.211D+00 0.789D+00
 Gap=     0.583 Goal=   None    Shift=    0.000
 RMSDP=2.46D-03 MaxDP=8.24D-02 DE=-1.92D-01 OVMax= 3.91D-02

 Cycle   3  Pass 1  IDiag  1:
 E= -321.626605413702     Delta-E=       -0.041761725680 Rises=F Damp=F
 DIIS: error= 4.47D-03 at cycle   3 NSaved=   3.
 NSaved= 3 IEnMin= 3 EnMin= -321.626605413702     IErMin= 3 ErrMin= 4.47D-03
 ErrMax= 4.47D-03  0.00D+00 EMaxC= 1.00D-01 BMatC= 3.92D-03 BMatP= 5.72D-02
 IDIUse=3 WtCom= 9.55D-01 WtEn= 4.47D-02
 Coeff-Com: -0.166D-01 0.168D+00 0.849D+00
 Coeff-En:   0.000D+00 0.000D+00 0.100D+01
 Coeff:     -0.159D-01 0.160D+00 0.856D+00
 Gap=     0.564 Goal=   None    Shift=    0.000
 RMSDP=4.51D-04 MaxDP=1.60D-02 DE=-4.18D-02 OVMax= 2.01D-02

 Cycle   4  Pass 1  IDiag  1:
 E= -321.629569256668     Delta-E=       -0.002963842965 Rises=F Damp=F
 DIIS: error= 1.59D-03 at cycle   4 NSaved=   4.
 NSaved= 4 IEnMin= 4 EnMin= -321.629569256668     IErMin= 4 ErrMin= 1.59D-03
 ErrMax= 1.59D-03  0.00D+00 EMaxC= 1.00D-01 BMatC= 2.87D-04 BMatP= 3.92D-03
 IDIUse=3 WtCom= 9.84D-01 WtEn= 1.59D-02
 Coeff-Com: -0.128D-01 0.199D-01 0.260D+00 0.733D+00
 Coeff-En:   0.000D+00 0.000D+00 0.000D+00 0.100D+01
 Coeff:     -0.126D-01 0.196D-01 0.256D+00 0.737D+00
 Gap=     0.565 Goal=   None    Shift=    0.000
 RMSDP=1.67D-04 MaxDP=3.55D-03 DE=-2.96D-03 OVMax= 3.68D-03

 Cycle   5  Pass 1  IDiag  1:
 E= -321.629839767513     Delta-E=       -0.000270510845 Rises=F Damp=F
 DIIS: error= 4.46D-04 at cycle   5 NSaved=   5.
 NSaved= 5 IEnMin= 5 EnMin= -321.629839767513     IErMin= 5 ErrMin= 4.46D-04
 ErrMax= 4.46D-04  0.00D+00 EMaxC= 1.00D-01 BMatC= 1.78D-05 BMatP= 2.87D-04
 IDIUse=3 WtCom= 9.96D-01 WtEn= 4.46D-03
 Coeff-Com:  0.147D-02-0.170D-01-0.871D-01-0.174D-02 0.110D+01
 Coeff-En:   0.000D+00 0.000D+00 0.000D+00 0.000D+00 0.100D+01
 Coeff:      0.146D-02-0.169D-01-0.867D-01-0.173D-02 0.110D+01
 Gap=     0.565 Goal=   None    Shift=    0.000
 RMSDP=8.31D-05 MaxDP=1.81D-03 DE=-2.71D-04 OVMax= 3.57D-03

 Cycle   6  Pass 1  IDiag  1:
 E= -321.629881737830     Delta-E=       -0.000041970317 Rises=F Damp=F
 DIIS: error= 2.01D-04 at cycle   6 NSaved=   6.
 NSaved= 6 IEnMin= 6 EnMin= -321.629881737830     IErMin= 6 ErrMin= 2.01D-04
 ErrMax= 2.01D-04  0.00D+00 EMaxC= 1.00D-01 BMatC= 3.05D-06 BMatP= 1.78D-05
 IDIUse=3 WtCom= 9.98D-01 WtEn= 2.01D-03
 Coeff-Com:  0.143D-02-0.536D-02-0.388D-01-0.885D-01 0.194D+00 0.937D+00
 Coeff-En:   0.000D+00 0.000D+00 0.000D+00 0.000D+00 0.000D+00 0.100D+01
 Coeff:      0.142D-02-0.535D-02-0.387D-01-0.883D-01 0.194D+00 0.937D+00
 Gap=     0.565 Goal=   None    Shift=    0.000
 RMSDP=3.40D-05 MaxDP=8.09D-04 DE=-4.20D-05 OVMax= 9.90D-04

 Cycle   7  Pass 1  IDiag  1:
 E= -321.629887482313     Delta-E=       -0.000005744483 Rises=F Damp=F
 DIIS: error= 6.09D-05 at cycle   7 NSaved=   7.
 NSaved= 7 IEnMin= 7 EnMin= -321.629887482313     IErMin= 7 ErrMin= 6.09D-05
 ErrMax= 6.09D-05  0.00D+00 EMaxC= 1.00D-01 BMatC= 3.61D-07 BMatP= 3.05D-06
 IDIUse=1 WtCom= 1.00D+00 WtEn= 0.00D+00
 Coeff-Com: -0.185D-03 0.222D-02 0.146D-01-0.597D-02-0.128D+00-0.630D-01
 Coeff-Com:  0.118D+01
 Coeff:     -0.185D-03 0.222D-02 0.146D-01-0.597D-02-0.128D+00-0.630D-01
 Coeff:      0.118D+01
 Gap=     0.565 Goal=   None    Shift=    0.000
 RMSDP=1.42D-05 MaxDP=2.77D-04 DE=-5.74D-06 OVMax= 6.48D-04

 Cycle   8  Pass 1  IDiag  1:
 E= -321.629888474754     Delta-E=       -0.000000992441 Rises=F Damp=F
 DIIS: error= 2.22D-05 at cycle   8 NSaved=   8.
 NSaved= 8 IEnMin= 8 EnMin= -321.629888474754     IErMin= 8 ErrMin= 2.22D-05
 ErrMax= 2.22D-05  0.00D+00 EMaxC= 1.00D-01 BMatC= 4.88D-08 BMatP= 3.61D-07
 IDIUse=1 WtCom= 1.00D+00 WtEn= 0.00D+00
 Coeff-Com: -0.201D-03 0.789D-03 0.626D-02 0.785D-02-0.247D-01-0.139D+00
 Coeff-Com:  0.460D-01 0.110D+01
 Coeff:     -0.201D-03 0.789D-03 0.626D-02 0.785D-02-0.247D-01-0.139D+00
 Coeff:      0.460D-01 0.110D+01
 Gap=     0.565 Goal=   None    Shift=    0.000
 RMSDP=5.18D-06 MaxDP=9.90D-05 DE=-9.92D-07 OVMax= 2.21D-04

 Cycle   9  Pass 1  IDiag  1:
 E= -321.629888591863     Delta-E=       -0.000000117110 Rises=F Damp=F
 DIIS: error= 5.98D-06 at cycle   9 NSaved=   9.
 NSaved= 9 IEnMin= 9 EnMin= -321.629888591863     IErMin= 9 ErrMin= 5.98D-06
 ErrMax= 5.98D-06  0.00D+00 EMaxC= 1.00D-01 BMatC= 3.88D-09 BMatP= 4.88D-08
 IDIUse=1 WtCom= 1.00D+00 WtEn= 0.00D+00
 Coeff-Com:  0.632D-06-0.155D-03-0.832D-03 0.386D-03 0.131D-01-0.613D-02
 Coeff-Com: -0.105D+00 0.570D-01 0.104D+01
 Coeff:      0.632D-06-0.155D-03-0.832D-03 0.386D-03 0.131D-01-0.613D-02
 Coeff:     -0.105D+00 0.570D-01 0.104D+01
 Gap=     0.565 Goal=   None    Shift=    0.000
 RMSDP=1.32D-06 MaxDP=2.62D-05 DE=-1.17D-07 OVMax= 5.05D-05

 Cycle  10  Pass 1  IDiag  1:
 E= -321.629888600187     Delta-E=       -0.000000008324 Rises=F Damp=F
 DIIS: error= 1.77D-06 at cycle  10 NSaved=  10.
 NSaved=10 IEnMin=10 EnMin= -321.629888600187     IErMin=10 ErrMin= 1.77D-06
 ErrMax= 1.77D-06  0.00D+00 EMaxC= 1.00D-01 BMatC= 4.25D-10 BMatP= 3.88D-09
 IDIUse=1 WtCom= 1.00D+00 WtEn= 0.00D+00
 Coeff-Com:  0.227D-04-0.110D-03-0.781D-03-0.117D-02 0.454D-02 0.150D-01
 Coeff-Com: -0.139D-01-0.127D+00 0.111D+00 0.101D+01
 Coeff:      0.227D-04-0.110D-03-0.781D-03-0.117D-02 0.454D-02 0.150D-01
 Coeff:     -0.139D-01-0.127D+00 0.111D+00 0.101D+01
 Gap=     0.565 Goal=   None    Shift=    0.000
 RMSDP=3.67D-07 MaxDP=8.59D-06 DE=-8.32D-09 OVMax= 1.20D-05

 Cycle  11  Pass 1  IDiag  1:
 E= -321.629888600998     Delta-E=       -0.000000000811 Rises=F Damp=F
 DIIS: error= 5.43D-07 at cycle  11 NSaved=  11.
 NSaved=11 IEnMin=11 EnMin= -321.629888600998     IErMin=11 ErrMin= 5.43D-07
 ErrMax= 5.43D-07  0.00D+00 EMaxC= 1.00D-01 BMatC= 3.41D-11 BMatP= 4.25D-10
 IDIUse=1 WtCom= 1.00D+00 WtEn= 0.00D+00
 Coeff-Com:  0.141D-05 0.315D-05 0.362D-04-0.130D-03-0.672D-03 0.101D-02
 Coeff-Com:  0.740D-02-0.746D-02-0.811D-01 0.368D-01 0.104D+01
 Coeff:      0.141D-05 0.315D-05 0.362D-04-0.130D-03-0.672D-03 0.101D-02
 Coeff:      0.740D-02-0.746D-02-0.811D-01 0.368D-01 0.104D+01
 Gap=     0.565 Goal=   None    Shift=    0.000
 RMSDP=9.23D-08 MaxDP=1.71D-06 DE=-8.11D-10 OVMax= 2.22D-06

 Cycle  12  Pass 1  IDiag  1:
 E= -321.629888601064     Delta-E=       -0.000000000066 Rises=F Damp=F
 DIIS: error= 1.02D-07 at cycle  12 NSaved=  12.
 NSaved=12 IEnMin=12 EnMin= -321.629888601064     IErMin=12 ErrMin= 1.02D-07
 ErrMax= 1.02D-07  0.00D+00 EMaxC= 1.00D-01 BMatC= 3.27D-12 BMatP= 3.41D-11
 IDIUse=1 WtCom= 1.00D+00 WtEn= 0.00D+00
 Coeff-Com: -0.216D-05 0.105D-04 0.868D-04 0.979D-04-0.513D-03-0.153D-02
 Coeff-Com:  0.190D-02 0.139D-01-0.198D-01-0.106D+00 0.785D-01 0.103D+01
 Coeff:     -0.216D-05 0.105D-04 0.868D-04 0.979D-04-0.513D-03-0.153D-02
 Coeff:      0.190D-02 0.139D-01-0.198D-01-0.106D+00 0.785D-01 0.103D+01
 Gap=     0.565 Goal=   None    Shift=    0.000
 RMSDP=3.44D-08 MaxDP=6.06D-07 DE=-6.62D-11 OVMax= 8.38D-07

 Cycle  13  Pass 1  IDiag  1:
 E= -321.629888601071     Delta-E=       -0.000000000007 Rises=F Damp=F
 DIIS: error= 3.19D-08 at cycle  13 NSaved=  13.
 NSaved=13 IEnMin=13 EnMin= -321.629888601071     IErMin=13 ErrMin= 3.19D-08
 ErrMax= 3.19D-08  0.00D+00 EMaxC= 1.00D-01 BMatC= 2.08D-13 BMatP= 3.27D-12
 IDIUse=1 WtCom= 1.00D+00 WtEn= 0.00D+00
 Coeff-Com: -0.352D-08-0.617D-06-0.435D-05 0.465D-05 0.635D-04-0.335D-04
 Coeff-Com: -0.661D-03 0.306D-03 0.667D-02-0.812D-03-0.892D-01 0.710D-02
 Coeff-Com:  0.108D+01
 Coeff:     -0.352D-08-0.617D-06-0.435D-05 0.465D-05 0.635D-04-0.335D-04
 Coeff:     -0.661D-03 0.306D-03 0.667D-02-0.812D-03-0.892D-01 0.710D-02
 Coeff:      0.108D+01
 Gap=     0.565 Goal=   None    Shift=    0.000
 RMSDP=9.81D-09 MaxDP=1.59D-07 DE=-6.82D-12 OVMax= 2.32D-07

 SCF Done:  E(RHF) =  -321.629888601     A.U. after   13 cycles
            NFock= 13  Conv=0.98D-08     -V/T= 2.0032
 KE= 3.206051545349D+02 PE=-1.253183186068D+03 EE= 3.620854722433D+02
 Leave Link  502 at Wed Apr 29 13:38:35 2026, MaxMem=    33554432 cpu:         0.7
 (Enter /opt/g09/g09/l601.exe)
 Copying SCF densities to generalized density rwf, IOpCl= 0 IROHF=0.

 **********************************************************************

            Population analysis using the SCF density.

 **********************************************************************

 Orbital symmetries:
       Occupied  (A) (A) (A) (A) (A) (A) (A) (A) (A) (A) (A) (A)
                 (A) (A) (A) (A) (A) (A) (A) (A) (A) (A) (A) (A)
       Virtual   (A) (A) (A) (A) (A) (A) (A) (A) (A) (A) (A) (A)
                 (A) (A) (A) (A) (A) (A) (A) (A) (A) (A) (A) (A)
                 (A) (A) (A) (A) (A) (A) (A) (A) (A) (A) (A) (A)
                 (A) (A) (A) (A) (A) (A) (A) (A) (A) (A) (A) (A)
                 (A) (A) (A) (A) (A) (A) (A) (A) (A) (A) (A) (A)
                 (A) (A) (A) (A) (A) (A) (A) (A) (A) (A) (A) (A)
                 (A) (A) (A) (A) (A) (A) (A) (A) (A) (A) (A) (A)
                 (A) (A) (A) (A) (A) (A) (A) (A) (A) (A) (A)
 The electronic state is 1-A.
 Alpha  occ. eigenvalues --  -20.57256 -20.51498 -15.58253 -11.36415 -11.28737
 Alpha  occ. eigenvalues --  -11.25039  -1.43712  -1.33778  -1.21228  -1.03564
 Alpha  occ. eigenvalues --   -0.87945  -0.81569  -0.73238  -0.70328  -0.65682
 Alpha  occ. eigenvalues --   -0.64487  -0.62976  -0.58857  -0.57457  -0.53724
 Alpha  occ. eigenvalues --   -0.52439  -0.45823  -0.44289  -0.42059
 Alpha virt. eigenvalues --    0.14482   0.18922   0.19841   0.21062   0.23203
 Alpha virt. eigenvalues --    0.26175   0.27587   0.30380   0.35682   0.38643
 Alpha virt. eigenvalues --    0.40778   0.45314   0.53032   0.60250   0.64705
 Alpha virt. eigenvalues --    0.66006   0.72639   0.74565   0.75146   0.79140
 Alpha virt. eigenvalues --    0.81336   0.83869   0.85882   0.87761   0.87858
 Alpha virt. eigenvalues --    0.89497   0.90609   0.91844   0.94049   0.99148
 Alpha virt. eigenvalues --    1.04382   1.07633   1.09495   1.15594   1.21810
 Alpha virt. eigenvalues --    1.23171   1.31056   1.32169   1.39959   1.42096
 Alpha virt. eigenvalues --    1.42957   1.44951   1.49365   1.57406   1.60333
 Alpha virt. eigenvalues --    1.64798   1.69371   1.74794   1.76228   1.86651
 Alpha virt. eigenvalues --    1.90471   1.91705   1.99044   2.01676   2.02094
 Alpha virt. eigenvalues --    2.03593   2.04577   2.06844   2.09480   2.15380
 Alpha virt. eigenvalues --    2.16370   2.19172   2.19391   2.28426   2.30945
 Alpha virt. eigenvalues --    2.33454   2.41985   2.45136   2.56886   2.60643
 Alpha virt. eigenvalues --    2.63270   2.68077   2.77775   2.78550   2.85961
 Alpha virt. eigenvalues --    2.89183   3.02274   3.02835   3.08531   3.09502
 Alpha virt. eigenvalues --    3.18515   3.21674   3.23887   3.28578   3.32877
 Alpha virt. eigenvalues --    3.40403   3.43025   3.51345   3.56427   3.64547
 Alpha virt. eigenvalues --    3.77619   3.82131   3.87696   4.12333   4.28540
     Molecular Orbital Coefficients:
                           1         2         3         4         5
                           O         O         O         O         O
     Eigenvalues --   -20.57256 -20.51498 -15.58253 -11.36415 -11.28737
   1 1   C  1S         -0.00006  -0.00004  -0.00007   0.00254   0.00742
   2        2S          0.00080   0.00056   0.00107  -0.00059  -0.00072
   3        3S         -0.00414  -0.00535  -0.00262   0.00510   0.00760
   4        4PX        -0.00014   0.00004   0.00030   0.00065  -0.00063
   5        4PY         0.00024   0.00005   0.00019  -0.00054  -0.00006
   6        4PZ        -0.00012   0.00004  -0.00006   0.00014   0.00030
   7        5PX         0.00448  -0.00269   0.00049  -0.00211   0.00207
   8        5PY         0.00036  -0.00370  -0.00216   0.00179  -0.00002
   9        5PZ         0.00034  -0.00088  -0.00043  -0.00006  -0.00144
  10        6D 0        0.00002   0.00000   0.00001   0.00038   0.00013
  11        6D+1       -0.00004   0.00005  -0.00007  -0.00019   0.00050
  12        6D-1       -0.00005   0.00002  -0.00008   0.00017   0.00010
  13        6D+2       -0.00029   0.00039   0.00004  -0.00013  -0.00051
  14        6D-2       -0.00008  -0.00005   0.00001   0.00066  -0.00018
  15 2   C  1S         -0.00001  -0.00003  -0.00019  -0.00003   0.99063
  16        2S          0.00008   0.00065   0.00068  -0.00095   0.03782
  17        3S         -0.00296   0.00064  -0.01069   0.00338  -0.03012
  18        4PX        -0.00001  -0.00019  -0.00011   0.00018   0.00015
  19        4PY        -0.00004   0.00006   0.00016  -0.00012   0.00015
  20        4PZ         0.00007   0.00002   0.00009   0.00003  -0.00017
  21        5PX        -0.00018   0.00044  -0.00128  -0.00181   0.00307
  22        5PY        -0.00009  -0.00160  -0.00340   0.00214   0.00045
  23        5PZ        -0.00166   0.00179  -0.00111  -0.00019  -0.00003
  24        6D 0       -0.00006   0.00007  -0.00029  -0.00010   0.00013
  25        6D+1        0.00002  -0.00008   0.00017  -0.00002   0.00015
  26        6D-1        0.00000   0.00000   0.00046  -0.00002  -0.00005
  27        6D+2        0.00011  -0.00001  -0.00042   0.00007  -0.00019
  28        6D-2       -0.00008  -0.00005   0.00059  -0.00002  -0.00029
  29 3   N  1S         -0.00004  -0.00001   0.99026  -0.00001   0.00001
  30        2S         -0.00067  -0.00019  -0.03739   0.00005  -0.00015
  31        3S          0.00268   0.00090   0.02265  -0.00151   0.00102
  32        4PX        -0.00013  -0.00003   0.00172  -0.00004  -0.00008
  33        4PY         0.00007   0.00001  -0.00119  -0.00001  -0.00049
  34        4PZ         0.00001   0.00000   0.00019   0.00003  -0.00015
  35        5PX        -0.00085  -0.00057  -0.00311   0.00044  -0.00041
  36        5PY        -0.00014  -0.00018  -0.00414   0.00024   0.00076
  37        5PZ         0.00012  -0.00018  -0.00131   0.00083  -0.00003
  38        6D 0       -0.00002   0.00004  -0.00071   0.00001   0.00012
  39        6D+1        0.00001   0.00001   0.00016   0.00003  -0.00015
  40        6D-1       -0.00001   0.00001   0.00046   0.00000  -0.00039
  41        6D+2        0.00002   0.00001  -0.00059  -0.00004   0.00048
  42        6D-2       -0.00002   0.00007  -0.00041  -0.00007  -0.00048
  43 4   C  1S         -0.00012  -0.00020  -0.00001   0.99082   0.00009
  44        2S         -0.00084  -0.00178  -0.00025   0.03688  -0.00066
  45        3S         -0.00251  -0.00599   0.00376  -0.00979   0.00020
  46        4PX        -0.00013  -0.00080   0.00001  -0.00024  -0.00008
  47        4PY        -0.00013   0.00000   0.00011   0.00100   0.00000
  48        4PZ        -0.00001  -0.00007   0.00004  -0.00017   0.00003
  49        5PX        -0.00211   0.01396   0.00252  -0.00919   0.00190
  50        5PY        -0.01097   0.00546  -0.00002   0.00469   0.00080
  51        5PZ         0.00078   0.00150   0.00022  -0.00158  -0.00021
  52        6D 0       -0.00031  -0.00070  -0.00011  -0.00179  -0.00007
  53        6D+1       -0.00008   0.00026   0.00003   0.00047  -0.00010
  54        6D-1       -0.00006   0.00009  -0.00003  -0.00018  -0.00001
  55        6D+2       -0.00077   0.00101   0.00005   0.00020   0.00006
  56        6D-2        0.00050   0.00088   0.00002   0.00071  -0.00002
  57 5   O  1S          0.99005   0.00098  -0.00004   0.00018  -0.00001
  58        2S         -0.03625   0.00105  -0.00034   0.00088  -0.00004
  59        3S          0.02360  -0.00472   0.00020  -0.00525  -0.00057
  60        4PX        -0.00145  -0.00002  -0.00014  -0.00015  -0.00005
  61        4PY         0.00183  -0.00035  -0.00016   0.00027   0.00009
  62        4PZ        -0.00032   0.00004  -0.00001  -0.00008   0.00006
  63        5PX        -0.00107  -0.00187   0.00026   0.00247   0.00011
  64        5PY        -0.00507   0.00204   0.00072   0.00391   0.00003
  65        5PZ         0.00027  -0.00045  -0.00002   0.00009  -0.00008
  66        6D 0        0.00034   0.00018   0.00004   0.00057  -0.00006
  67        6D+1       -0.00012  -0.00006  -0.00002  -0.00004   0.00001
  68        6D-1       -0.00002   0.00006  -0.00001   0.00007   0.00002
  69        6D+2       -0.00055   0.00000   0.00001   0.00042   0.00001
  70        6D-2       -0.00019   0.00019  -0.00009  -0.00030   0.00008
  71 6   O  1S         -0.00079   0.99012  -0.00001   0.00059  -0.00002
  72        2S          0.00094  -0.03637  -0.00011   0.00101  -0.00028
  73        3S         -0.00309   0.02822   0.00066  -0.00893   0.00153
  74        4PX         0.00025  -0.00275   0.00000   0.00003   0.00002
  75        4PY        -0.00008  -0.00078  -0.00002   0.00025  -0.00003
  76        4PZ         0.00004  -0.00034  -0.00002   0.00002  -0.00006
  77        5PX        -0.00132   0.00585  -0.00003  -0.00418   0.00023
  78        5PY         0.00189   0.00147   0.00011  -0.00306   0.00013
  79        5PZ        -0.00037   0.00075   0.00007  -0.00046   0.00028
  80        6D 0        0.00009   0.00036   0.00000  -0.00008   0.00000
  81        6D+1       -0.00007  -0.00011   0.00000   0.00006   0.00000
  82        6D-1        0.00004   0.00001   0.00000   0.00004  -0.00001
  83        6D+2       -0.00013  -0.00026  -0.00003   0.00037   0.00000
  84        6D-2        0.00028  -0.00017  -0.00001   0.00010   0.00000
  85 7   H  1S         -0.00029  -0.00003   0.00176  -0.00025   0.00055
  86        2S          0.00004   0.00000  -0.00206  -0.00031   0.00097
  87        3PX         0.00011   0.00000  -0.00054   0.00011  -0.00027
  88        3PY        -0.00009   0.00004   0.00057   0.00002  -0.00053
  89        3PZ        -0.00002   0.00001  -0.00232   0.00004  -0.00027
  90 8   H  1S         -0.00013   0.00003   0.00221   0.00024   0.00040
  91        2S          0.00003   0.00015  -0.00185   0.00002   0.00034
  92        3PX         0.00007   0.00000  -0.00173  -0.00006  -0.00015
  93        3PY        -0.00005  -0.00003  -0.00059  -0.00002  -0.00042
  94        3PZ         0.00002   0.00002   0.00176   0.00000  -0.00015
  95 9   H  1S          0.00103   0.00074  -0.00039   0.00037   0.00017
  96        2S         -0.00224  -0.00080  -0.00241   0.00056   0.00021
  97        3PX        -0.00226  -0.00026  -0.00065  -0.00009   0.00024
  98        3PY         0.00021   0.00019   0.00035  -0.00092  -0.00035
  99        3PZ        -0.00026  -0.00005  -0.00002   0.00011  -0.00015
 100 10  H  1S          0.00021  -0.00031   0.00056   0.00036  -0.00159
 101        2S          0.00041  -0.00107   0.00108   0.00063   0.00542
 102        3PX         0.00009   0.00004   0.00000   0.00000   0.00059
 103        3PY         0.00005  -0.00008   0.00013   0.00002  -0.00094
 104        3PZ         0.00012  -0.00007   0.00003   0.00000   0.00027
 105 11  H  1S         -0.00015   0.00034   0.00071  -0.00059  -0.00114
 106        2S          0.00017   0.00117   0.00118  -0.00029   0.00631
 107        3PX        -0.00013  -0.00002  -0.00008   0.00004  -0.00039
 108        3PY         0.00008   0.00007  -0.00006  -0.00015   0.00020
 109        3PZ         0.00009   0.00007   0.00003   0.00006  -0.00101
 110 12  H  1S          0.00005   0.00044   0.00039  -0.00003   0.00000
 111        2S          0.00081   0.00150   0.00081   0.00052   0.00021
 112        3PX        -0.00025   0.00015   0.00017  -0.00028   0.00034
 113        3PY         0.00011   0.00017   0.00019   0.00026   0.00013
 114        3PZ        -0.00007  -0.00010  -0.00004  -0.00013  -0.00021
 115 13  H  1S          0.00042  -0.00023  -0.00018   0.00013  -0.00017
 116        2S          0.00041  -0.00067  -0.00087   0.00056  -0.00035
 117        3PX         0.00000  -0.00014  -0.00012  -0.00019   0.00023
 118        3PY        -0.00019   0.00016  -0.00004   0.00029   0.00009
 119        3PZ         0.00009  -0.00008  -0.00002  -0.00008  -0.00015
                           6         7         8         9        10
                           O         O         O         O         O
     Eigenvalues --   -11.25039  -1.43712  -1.33778  -1.21228  -1.03564
   1 1   C  1S          0.99041  -0.02449  -0.00452  -0.04805  -0.20307
   2        2S          0.03978   0.04802   0.00752   0.09105   0.39782
   3        3S         -0.04160  -0.03295   0.02481   0.04127   0.12392
   4        4PX        -0.00004  -0.01555  -0.01394   0.03237   0.01292
   5        4PY        -0.00008   0.01937  -0.00496   0.01489   0.02620
   6        4PZ         0.00038  -0.00596  -0.00107  -0.01220  -0.02625
   7        5PX         0.00047   0.00937  -0.00770   0.00847   0.01612
   8        5PY        -0.00379  -0.00181   0.00852   0.00491   0.01768
   9        5PZ         0.00150   0.00287  -0.00292  -0.01545  -0.01252
  10        6D 0        0.00020  -0.00236  -0.00037  -0.00184  -0.00361
  11        6D+1        0.00014   0.00066   0.00075  -0.00350  -0.00428
  12        6D-1        0.00016  -0.00135   0.00001  -0.00144  -0.00257
  13        6D+2       -0.00024   0.00020   0.00137   0.00373   0.00492
  14        6D-2        0.00029  -0.00386  -0.00145   0.00187  -0.00367
  15 2   C  1S         -0.00716  -0.00816   0.00627  -0.12858  -0.10527
  16        2S         -0.00112   0.01531  -0.01257   0.25052   0.20732
  17        3S          0.00783   0.00931  -0.00606   0.01788   0.05904
  18        4PX         0.00053  -0.00548   0.00075   0.02960  -0.10180
  19        4PY         0.00013   0.00410  -0.00564   0.08096  -0.05688
  20        4PZ        -0.00031   0.00324  -0.00239   0.04069   0.01850
  21        5PX        -0.00319  -0.00537   0.00164   0.01553  -0.03228
  22        5PY        -0.00134   0.00307  -0.00245   0.00702  -0.01034
  23        5PZ         0.00035   0.00003  -0.00093   0.01237   0.00805
  24        6D 0        0.00013  -0.00093   0.00061  -0.00595  -0.00011
  25        6D+1        0.00049  -0.00065   0.00005   0.00248  -0.00978
  26        6D-1        0.00010   0.00054  -0.00065   0.00849  -0.00404
  27        6D+2       -0.00044   0.00039   0.00058  -0.00480   0.00914
  28        6D-2       -0.00035  -0.00017   0.00020   0.01255  -0.00108
  29 3   N  1S         -0.00006   0.00805  -0.01132   0.23325  -0.09616
  30        2S         -0.00084   0.01693  -0.02316   0.45432  -0.19154
  31        3S          0.00240   0.00374  -0.00757   0.22493  -0.10185
  32        4PX        -0.00016   0.00505  -0.00452  -0.02049   0.06629
  33        4PY        -0.00014   0.00079  -0.00078   0.06615   0.03098
  34        4PZ         0.00007   0.00080  -0.00084   0.01033   0.01365
  35        5PX        -0.00144   0.00149   0.00070  -0.02359  -0.00968
  36        5PY        -0.00144  -0.00038   0.00048  -0.03153  -0.01223
  37        5PZ         0.00107   0.00107  -0.00042  -0.01272  -0.00420
  38        6D 0        0.00002  -0.00018   0.00015  -0.00140  -0.00273
  39        6D+1        0.00004   0.00008  -0.00009   0.00131   0.00101
  40        6D-1       -0.00002   0.00007  -0.00009   0.00325   0.00194
  41        6D+2        0.00003   0.00010  -0.00008  -0.00351  -0.00311
  42        6D-2        0.00012   0.00026  -0.00025   0.00550   0.00195
  43 4   C  1S         -0.00227  -0.15683  -0.06211  -0.00160  -0.05470
  44        2S         -0.00150   0.30565   0.12428   0.00295   0.11691
  45        3S          0.01091   0.04301  -0.00415  -0.00179   0.03389
  46        4PX        -0.00043  -0.06022  -0.20210   0.01136   0.12391
  47        4PY         0.00051   0.06781  -0.14045  -0.02694  -0.07912
  48        4PZ        -0.00011  -0.01499  -0.01626   0.00292   0.02492
  49        5PX         0.00472   0.01562  -0.03321   0.00416   0.02915
  50        5PY        -0.00310  -0.01669  -0.00049   0.00152  -0.02188
  51        5PZ         0.00047   0.00395  -0.00489   0.00235   0.01000
  52        6D 0        0.00043  -0.02093  -0.00422   0.00018  -0.00383
  53        6D+1       -0.00021   0.00352   0.00544   0.00047   0.00219
  54        6D-1        0.00024  -0.00070   0.00232  -0.00028  -0.00264
  55        6D+2        0.00003  -0.00026   0.03047   0.00335  -0.00016
  56        6D-2        0.00068   0.01953   0.00184  -0.00279  -0.01152
  57 5   O  1S         -0.00004   0.20812  -0.17058  -0.02759  -0.03730
  58        2S         -0.00038   0.41049  -0.33895  -0.05447  -0.07803
  59        3S          0.00027   0.23188  -0.19971  -0.04507  -0.05480
  60        4PX        -0.00006   0.01564  -0.05078   0.00726   0.00580
  61        4PY         0.00011  -0.08531   0.03820   0.00524  -0.03371
  62        4PZ        -0.00008   0.00880  -0.00951  -0.00046   0.00380
  63        5PX        -0.00011  -0.01072   0.00249   0.00141   0.00379
  64        5PY        -0.00041  -0.02988   0.01532   0.00250  -0.01381
  65        5PZ         0.00026   0.00115  -0.00098  -0.00128   0.00067
  66        6D 0       -0.00011  -0.00623   0.00308   0.00030  -0.00053
  67        6D+1        0.00003   0.00026  -0.00056   0.00001  -0.00006
  68        6D-1       -0.00004  -0.00093   0.00064   0.00009  -0.00062
  69        6D+2       -0.00004  -0.00589   0.00109   0.00051  -0.00311
  70        6D-2        0.00001   0.00364   0.00074  -0.00075  -0.00237
  71 6   O  1S         -0.00003   0.14192   0.21475   0.00023  -0.04102
  72        2S         -0.00033   0.27697   0.42060  -0.00025  -0.08384
  73        3S          0.00093   0.14351   0.23233   0.00431  -0.05720
  74        4PX        -0.00008   0.08889   0.11481   0.00115   0.00918
  75        4PY         0.00001   0.03548   0.02211  -0.00500  -0.02850
  76        4PZ        -0.00003   0.00976   0.01470   0.00028   0.00390
  77        5PX         0.00047   0.01400   0.02524   0.00126   0.00694
  78        5PY         0.00040   0.00927  -0.00003  -0.00192  -0.00846
  79        5PZ         0.00020   0.00119   0.00372   0.00020   0.00099
  80        6D 0       -0.00012  -0.00494  -0.00633   0.00005   0.00015
  81        6D+1        0.00004   0.00167   0.00283   0.00004   0.00042
  82        6D-1       -0.00002   0.00086   0.00057  -0.00011  -0.00028
  83        6D+2       -0.00001   0.00704   0.01062   0.00036   0.00172
  84        6D-2        0.00002   0.00693   0.00432  -0.00072  -0.00289
  85 7   H  1S         -0.00067   0.00282  -0.00522   0.15461  -0.09204
  86        2S         -0.00028  -0.00029  -0.00058   0.00573  -0.01132
  87        3PX         0.00017  -0.00066   0.00065  -0.00516   0.00152
  88        3PY         0.00011   0.00010  -0.00018   0.00108  -0.00197
  89        3PZ         0.00002  -0.00028   0.00074  -0.02346   0.01262
  90 8   H  1S          0.00050   0.00247  -0.00507   0.15342  -0.10489
  91        2S          0.00038   0.00024  -0.00041   0.00825  -0.00646
  92        3PX        -0.00007  -0.00064   0.00082  -0.01558   0.00832
  93        3PY         0.00006   0.00000   0.00015  -0.01000   0.00428
  94        3PZ         0.00007  -0.00008  -0.00031   0.01548  -0.01002
  95 9   H  1S          0.00006   0.11530  -0.12226  -0.00056  -0.02512
  96        2S         -0.00005  -0.00173   0.00085   0.00427  -0.01021
  97        3PX        -0.00011  -0.02320   0.02367   0.00333   0.00297
  98        3PY        -0.00024  -0.00644   0.00522  -0.00100  -0.00110
  99        3PZ         0.00004  -0.00218   0.00232   0.00022   0.00054
 100 10  H  1S          0.00001   0.00210  -0.00135   0.05377   0.06627
 101        2S         -0.00043   0.00043   0.00041   0.00591   0.01141
 102        3PX        -0.00016  -0.00003  -0.00010  -0.00583  -0.00663
 103        3PY        -0.00002   0.00020  -0.00002   0.00740   0.00632
 104        3PZ         0.00022   0.00005   0.00007  -0.00127  -0.00121
 105 11  H  1S         -0.00002   0.00268  -0.00256   0.05964   0.06821
 106        2S         -0.00017   0.00028  -0.00060   0.01031   0.00508
 107        3PX        -0.00036  -0.00003   0.00000   0.00114   0.00063
 108        3PY        -0.00001  -0.00005   0.00002  -0.00046  -0.00198
 109        3PZ         0.00026   0.00087  -0.00058   0.00918   0.00871
 110 12  H  1S         -0.00099   0.00964   0.00085   0.02621   0.12550
 111        2S          0.00696   0.00447  -0.00057   0.00329   0.01283
 112        3PX         0.00028  -0.00092  -0.00041   0.00019  -0.00277
 113        3PY         0.00030   0.00049  -0.00033   0.00029  -0.00001
 114        3PZ         0.00122  -0.00198  -0.00034  -0.00396  -0.01685
 115 13  H  1S         -0.00133   0.01026   0.00714   0.01747   0.12824
 116        2S          0.00617   0.00691   0.00103  -0.00084   0.01351
 117        3PX        -0.00045   0.00012  -0.00018   0.00179   0.00633
 118        3PY        -0.00105   0.00215   0.00123   0.00289   0.01560
 119        3PZ        -0.00055   0.00039   0.00037   0.00121   0.00522
                          11        12        13        14        15
                           O         O         O         O         O
     Eigenvalues --    -0.87945  -0.81569  -0.73238  -0.70328  -0.65682
   1 1   C  1S          0.08997  -0.04068   0.03970  -0.04283   0.03247
   2        2S         -0.18136   0.07900  -0.07714   0.08648  -0.06395
   3        3S         -0.06363   0.01936  -0.04073   0.06329  -0.07248
   4        4PX         0.14720   0.00256  -0.14341  -0.04262  -0.08690
   5        4PY        -0.02998  -0.04943   0.12872  -0.19073  -0.02294
   6        4PZ        -0.05609   0.02326  -0.10066  -0.00721  -0.16389
   7        5PX         0.04339  -0.00326  -0.04780  -0.00122  -0.05332
   8        5PY        -0.01946  -0.01235   0.03541  -0.09979  -0.02990
   9        5PZ        -0.01984   0.01489  -0.04314  -0.00970  -0.07783
  10        6D 0        0.00155   0.00110  -0.00542   0.00252  -0.00861
  11        6D+1       -0.00938   0.00093   0.00201   0.00060   0.00174
  12        6D-1       -0.00036   0.00206  -0.00602   0.00600  -0.00072
  13        6D+2        0.00650   0.00046  -0.00332  -0.00369   0.00218
  14        6D-2        0.00907   0.00409  -0.00923   0.00379  -0.00545
  15 2   C  1S         -0.17499   0.02933  -0.00394   0.01511  -0.01368
  16        2S          0.35560  -0.06128   0.00952  -0.03517   0.02412
  17        3S          0.12017  -0.00447  -0.01138  -0.01652   0.04442
  18        4PX         0.03791  -0.03492  -0.00200   0.02371   0.03879
  19        4PY        -0.03475  -0.00338   0.12856  -0.14175  -0.14754
  20        4PZ        -0.05948   0.02879  -0.17009  -0.12201  -0.04822
  21        5PX         0.00269  -0.01579   0.00299   0.02601   0.01205
  22        5PY        -0.00316  -0.00075   0.05859  -0.04388  -0.06145
  23        5PZ        -0.01997   0.01497  -0.08401  -0.06410  -0.00015
  24        6D 0        0.00086  -0.00033  -0.00018  -0.00059   0.00228
  25        6D+1        0.00182  -0.00284   0.00338  -0.00151   0.00786
  26        6D-1       -0.00155  -0.00008  -0.00192  -0.01574  -0.00021
  27        6D+2       -0.00379   0.00011  -0.00433   0.00537   0.00594
  28        6D-2       -0.00192  -0.00001   0.00183   0.00143  -0.00942
  29 3   N  1S         -0.06471   0.00368   0.00476  -0.00484  -0.01332
  30        2S         -0.13181   0.00976   0.01176  -0.01349  -0.03058
  31        3S         -0.06545   0.00399   0.02288  -0.03791  -0.04042
  32        4PX         0.09279   0.02855   0.02683  -0.24137  -0.07210
  33        4PY         0.10418  -0.04027  -0.05216  -0.15470   0.00245
  34        4PZ         0.07979  -0.02787   0.24172   0.18222  -0.23865
  35        5PX        -0.02807  -0.01691  -0.02300   0.12976   0.05025
  36        5PY        -0.05649   0.02724   0.03044   0.07066  -0.00172
  37        5PZ        -0.03505   0.01330  -0.11410  -0.08465   0.11812
  38        6D 0       -0.00470   0.00039  -0.00280   0.00051   0.00579
  39        6D+1        0.00128   0.00049  -0.00739  -0.01264   0.00845
  40        6D-1        0.00752  -0.00199   0.00755  -0.00045  -0.00535
  41        6D+2       -0.00870   0.00227   0.00334   0.00962  -0.00010
  42        6D-2        0.00249  -0.00077   0.00363  -0.00268  -0.00701
  43 4   C  1S          0.08211   0.11460  -0.06943   0.03306  -0.06491
  44        2S         -0.18191  -0.26063   0.15348  -0.07292   0.15374
  45        3S         -0.04403  -0.03406   0.05903  -0.00536   0.02223
  46        4PX        -0.11940  -0.02841   0.11027  -0.07855  -0.08219
  47        4PY         0.06606  -0.22144  -0.13463   0.00160  -0.16282
  48        4PZ        -0.04215   0.01953  -0.00483  -0.01991  -0.09891
  49        5PX        -0.04260  -0.00142   0.08110  -0.03121   0.03934
  50        5PY         0.02244  -0.02613  -0.03260  -0.00227  -0.03329
  51        5PZ        -0.01282   0.00303  -0.00002  -0.00557  -0.03887
  52        6D 0        0.00477   0.01025  -0.00393   0.00228  -0.00246
  53        6D+1       -0.00307   0.00048   0.00031  -0.00087   0.00212
  54        6D-1        0.00307   0.00345   0.00048  -0.00123   0.00081
  55        6D+2        0.00516   0.02053   0.00658  -0.00905   0.00616
  56        6D-2        0.00626   0.00229   0.00640  -0.00801   0.00662
  57 5   O  1S          0.03372   0.03558  -0.04208   0.04720   0.00451
  58        2S          0.06996   0.07149  -0.09076   0.10163   0.00890
  59        3S          0.06241   0.03060  -0.10661   0.11028   0.00465
  60        4PX         0.01275   0.31991   0.16733  -0.12384   0.06620
  61        4PY         0.07793   0.29529  -0.06058   0.11640   0.07003
  62        4PZ        -0.01761   0.01646  -0.00790  -0.03492  -0.09728
  63        5PX         0.00650   0.13268   0.08468  -0.07304   0.02679
  64        5PY         0.03891   0.15370  -0.03763   0.07369   0.04139
  65        5PZ        -0.01004   0.00525  -0.00867  -0.02240  -0.06568
  66        6D 0        0.00114   0.00283  -0.00296   0.00376   0.00023
  67        6D+1        0.00001   0.00290   0.00066  -0.00128  -0.00048
  68        6D-1        0.00174   0.00133   0.00058   0.00204   0.00568
  69        6D+2        0.00561   0.02313   0.00062   0.00199   0.00399
  70        6D-2        0.00175  -0.00669  -0.00725   0.00615  -0.00036
  71 6   O  1S          0.04838   0.06874  -0.02556  -0.00964  -0.07408
  72        2S          0.10030   0.13855  -0.05809  -0.01729  -0.15741
  73        3S          0.07836   0.14308  -0.02379  -0.04227  -0.17360
  74        4PX        -0.04319  -0.06052   0.08072   0.01534   0.29162
  75        4PY         0.02975  -0.11572  -0.08232   0.01618  -0.03153
  76        4PZ        -0.01707   0.00355  -0.00185  -0.00509  -0.03504
  77        5PX        -0.02291  -0.02693   0.04902   0.00517   0.16729
  78        5PY         0.00943  -0.06364  -0.04209   0.00770  -0.02115
  79        5PZ        -0.00778   0.00264   0.00004  -0.00403  -0.02182
  80        6D 0        0.00057   0.00243  -0.00099  -0.00136  -0.00743
  81        6D+1       -0.00174   0.00024  -0.00039  -0.00016  -0.00250
  82        6D-1       -0.00014  -0.00099  -0.00074  -0.00014  -0.00135
  83        6D+2       -0.00336  -0.00116   0.00577   0.00053   0.01459
  84        6D-2        0.00181  -0.00896  -0.00411   0.00089   0.00094
  85 7   H  1S         -0.12597   0.01344  -0.19147  -0.09061   0.20471
  86        2S         -0.02065   0.00346  -0.04120  -0.01888   0.05882
  87        3PX         0.00222  -0.00156   0.00789   0.01141  -0.00654
  88        3PY        -0.00376   0.00116   0.00075   0.00433   0.00093
  89        3PZ         0.01383  -0.00053   0.01481   0.00301  -0.01507
  90 8   H  1S         -0.09820  -0.01415   0.11648   0.27713  -0.09304
  91        2S         -0.01685  -0.00040   0.02367   0.06873  -0.02740
  92        3PX         0.00565   0.00093  -0.01107  -0.01791   0.00967
  93        3PY         0.00180   0.00183  -0.00378  -0.00781   0.00311
  94        3PZ        -0.01046  -0.00049  -0.00008   0.01344   0.00240
  95 9   H  1S          0.03612   0.29052   0.09134  -0.06074   0.04538
  96        2S          0.00270   0.04190   0.00040   0.00663   0.01283
  97        3PX        -0.00601  -0.03919  -0.01021   0.00467  -0.00691
  98        3PY         0.00230   0.00104  -0.00629   0.00820   0.00247
  99        3PZ        -0.00159  -0.00439  -0.00254  -0.00077  -0.00437
 100 10  H  1S          0.17081  -0.03531  -0.08492   0.06799   0.12158
 101        2S          0.03388  -0.01025  -0.00980   0.01408   0.03463
 102        3PX        -0.01020   0.00183   0.00395  -0.00393  -0.00493
 103        3PY         0.01373  -0.00289  -0.00403   0.00256   0.00607
 104        3PZ        -0.00413   0.00098  -0.00181  -0.00175  -0.00268
 105 11  H  1S          0.17270  -0.04173   0.13453   0.06297   0.04274
 106        2S          0.03065  -0.00860   0.02189   0.01028   0.01503
 107        3PX         0.00387  -0.00095   0.00085   0.00107   0.00170
 108        3PY        -0.00357   0.00053   0.00094  -0.00215  -0.00293
 109        3PZ         0.01775  -0.00368   0.00873   0.00404   0.00321
 110 12  H  1S         -0.09605   0.05163  -0.13207   0.03484  -0.17455
 111        2S         -0.01480   0.00734  -0.03274   0.00709  -0.03778
 112        3PX         0.00406  -0.00012  -0.00146  -0.00237   0.00049
 113        3PY        -0.00048  -0.00149   0.00186  -0.00361  -0.00106
 114        3PZ         0.00968  -0.00495   0.01054  -0.00397   0.01163
 115 13  H  1S         -0.07773   0.06208  -0.06893   0.18308   0.04084
 116        2S         -0.01571   0.01996  -0.01889   0.02747  -0.00328
 117        3PX        -0.00109   0.00197  -0.00551   0.00535  -0.00103
 118        3PY        -0.00813   0.00523  -0.00348   0.01160   0.00301
 119        3PZ        -0.00361   0.00198  -0.00410   0.00388  -0.00346
                          16        17        18        19        20
                           O         O         O         O         O
     Eigenvalues --    -0.64487  -0.62976  -0.58857  -0.57457  -0.53724
   1 1   C  1S          0.02072   0.02926  -0.00638  -0.00185   0.00745
   2        2S         -0.04532  -0.06364   0.00849   0.00055  -0.02150
   3        3S         -0.02337  -0.04829   0.07669  -0.01314  -0.01660
   4        4PX        -0.06883  -0.07249   0.05529   0.23205  -0.06006
   5        4PY         0.02763   0.06848  -0.00422   0.03999  -0.29090
   6        4PZ         0.17488   0.02447  -0.10850   0.06396  -0.15770
   7        5PX        -0.02398  -0.00069   0.01177   0.12060  -0.00136
   8        5PY        -0.00432   0.04035   0.02384   0.01305  -0.15451
   9        5PZ         0.07392   0.01360  -0.07187   0.04249  -0.08686
  10        6D 0        0.00269  -0.00265   0.00036   0.00661  -0.01337
  11        6D+1        0.00366  -0.00012  -0.01080  -0.00666   0.00253
  12        6D-1        0.00426   0.00146   0.00026  -0.00122   0.00836
  13        6D+2        0.00301  -0.00081   0.00028   0.00826  -0.00980
  14        6D-2       -0.00535  -0.01316   0.00470   0.00356   0.01279
  15 2   C  1S         -0.01291  -0.01107  -0.00716  -0.00292   0.01127
  16        2S          0.03212   0.01572   0.01863   0.00551  -0.01911
  17        3S         -0.02807   0.01428  -0.00500   0.03280  -0.07948
  18        4PX         0.18570   0.12988  -0.23479  -0.13593   0.08209
  19        4PY         0.03921  -0.21281   0.02070  -0.15667   0.05093
  20        4PZ         0.04316  -0.05959  -0.18289   0.06252   0.10567
  21        5PX         0.08986   0.07338  -0.09583  -0.05745   0.03285
  22        5PY        -0.01192  -0.08159   0.00680  -0.04388   0.00085
  23        5PZ         0.01716  -0.03094  -0.09000   0.02878   0.02566
  24        6D 0       -0.00316   0.00122   0.01496   0.00018  -0.01442
  25        6D+1        0.00398   0.00504  -0.00310  -0.01368   0.00527
  26        6D-1        0.00348  -0.00675  -0.00328  -0.01020   0.00499
  27        6D+2       -0.01031   0.00508   0.00755   0.00727  -0.01027
  28        6D-2        0.00022  -0.01441  -0.00069  -0.00920   0.00961
  29 3   N  1S         -0.00769  -0.03085   0.01144  -0.00637   0.02501
  30        2S         -0.01665  -0.06920   0.02323  -0.01580   0.04865
  31        3S          0.01496  -0.08142   0.02341  -0.02762   0.13325
  32        4PX         0.03114  -0.18297   0.04194  -0.04948   0.12642
  33        4PY         0.12078  -0.04144  -0.15390  -0.21587   0.07554
  34        4PZ         0.09665  -0.08279  -0.13952   0.03956   0.06349
  35        5PX        -0.01768   0.11166  -0.03973   0.01133  -0.10037
  36        5PY        -0.08557   0.01785   0.10549   0.15118  -0.05783
  37        5PZ        -0.05295   0.04641   0.07709  -0.01255  -0.03865
  38        6D 0       -0.00484   0.00232   0.00895  -0.00040  -0.00459
  39        6D+1       -0.00263  -0.00128   0.00688  -0.00681  -0.00027
  40        6D-1        0.00508  -0.00385  -0.00259  -0.00559   0.00307
  41        6D+2       -0.00767   0.00294   0.00784   0.01008  -0.00604
  42        6D-2        0.00025  -0.00810   0.00184   0.00089   0.00146
  43 4   C  1S         -0.04470  -0.01033   0.01167  -0.02091   0.00046
  44        2S          0.10662   0.01360  -0.02345   0.04843  -0.00583
  45        3S          0.02187   0.05637  -0.06352  -0.02836  -0.03174
  46        4PX        -0.17354   0.19613  -0.08435  -0.17783  -0.06607
  47        4PY        -0.11285   0.03758   0.02642   0.08482   0.12733
  48        4PZ         0.17284   0.14405   0.16304  -0.05474   0.01376
  49        5PX         0.00740   0.05059  -0.05721   0.01590   0.00837
  50        5PY        -0.01211  -0.02985   0.04377   0.02754   0.01112
  51        5PZ         0.09082   0.06941   0.08921  -0.01006   0.02899
  52        6D 0       -0.00224  -0.00343  -0.00355  -0.00164  -0.00758
  53        6D+1       -0.00197  -0.00507  -0.00982   0.00503  -0.00534
  54        6D-1        0.00492   0.00565   0.01275   0.00060   0.01210
  55        6D+2        0.01029  -0.00722   0.00435   0.02849  -0.00577
  56        6D-2        0.00154   0.00976  -0.00901   0.01262   0.01229
  57 5   O  1S          0.01378  -0.03204   0.00553  -0.05416  -0.03394
  58        2S          0.02992  -0.07157   0.01453  -0.11541  -0.07522
  59        3S          0.02391  -0.07583   0.00700  -0.16158  -0.08218
  60        4PX        -0.02131   0.13894  -0.09903   0.24105   0.14362
  61        4PY         0.14260  -0.17271   0.08429  -0.13451  -0.20129
  62        4PZ         0.19866   0.19783   0.27931  -0.00522   0.18673
  63        5PX        -0.02755   0.08336  -0.06363   0.14385   0.09245
  64        5PY         0.09277  -0.11715   0.06004  -0.09991  -0.15238
  65        5PZ         0.13308   0.13492   0.20096  -0.00846   0.13952
  66        6D 0        0.00435  -0.00341   0.00415  -0.00643  -0.00491
  67        6D+1        0.00186   0.00291   0.00234   0.00165   0.00319
  68        6D-1       -0.00923  -0.00989  -0.01207   0.00063  -0.00703
  69        6D+2        0.00610  -0.00465   0.00217   0.00268  -0.00162
  70        6D-2        0.00442  -0.00749   0.00480  -0.00535  -0.00422
  71 6   O  1S         -0.06926   0.04857  -0.00601  -0.02665  -0.00467
  72        2S         -0.14551   0.09916  -0.01201  -0.05912  -0.01341
  73        3S         -0.17604   0.14916  -0.02372  -0.06087   0.01017
  74        4PX         0.25744  -0.19995  -0.00284   0.17307   0.00656
  75        4PY         0.03464  -0.11646   0.08315   0.23865   0.09385
  76        4PZ         0.18538   0.08050   0.16209  -0.01503   0.02847
  77        5PX         0.14379  -0.11017  -0.00352   0.10350   0.01060
  78        5PY         0.01929  -0.06437   0.04824   0.15729   0.06691
  79        5PZ         0.11140   0.05116   0.10378  -0.01172   0.01817
  80        6D 0       -0.00408   0.00708   0.00133  -0.00473  -0.00068
  81        6D+1        0.01448   0.00549   0.01162  -0.00109   0.00167
  82        6D-1        0.00389   0.00141   0.00407   0.00120   0.00164
  83        6D+2        0.01069  -0.00806  -0.00179   0.00335  -0.00255
  84        6D-2        0.00403  -0.00700   0.00356   0.01419   0.00650
  85 7   H  1S         -0.09098   0.08940   0.11564  -0.04351  -0.07516
  86        2S         -0.02516   0.03401   0.04813  -0.01224  -0.03405
  87        3PX         0.00213   0.00168  -0.00515   0.00386  -0.00075
  88        3PY        -0.00406   0.00118   0.00626   0.00611  -0.00275
  89        3PZ         0.00638  -0.00861  -0.00607   0.00249   0.00516
  90 8   H  1S         -0.01567   0.05641  -0.04132   0.12488  -0.05421
  91        2S         -0.00905   0.01452  -0.01211   0.05347  -0.02119
  92        3PX        -0.00001   0.00037   0.00212  -0.00766   0.00069
  93        3PY        -0.00258  -0.00204   0.00617   0.00199   0.00060
  94        3PZ        -0.00426   0.00708   0.00187   0.00622  -0.00561
  95 9   H  1S          0.02472   0.05536  -0.02199   0.15346   0.09236
  96        2S          0.01110  -0.00859   0.01284   0.02298   0.00887
  97        3PX        -0.00572  -0.01019   0.00350  -0.01403  -0.00768
  98        3PY         0.00617  -0.00916   0.00411  -0.00827  -0.01036
  99        3PZ         0.00712   0.00677   0.01207  -0.00261   0.00582
 100 10  H  1S          0.08548   0.21293  -0.15526   0.05183   0.01278
 101        2S          0.02121   0.06855  -0.06202   0.01621   0.01292
 102        3PX        -0.00110  -0.00810   0.00301  -0.00445   0.00111
 103        3PY         0.00549   0.01006  -0.00804  -0.00014   0.00115
 104        3PZ         0.00008  -0.00274  -0.00253   0.00122   0.00386
 105 11  H  1S         -0.04127   0.03160   0.20277  -0.04823  -0.12870
 106        2S         -0.00193   0.00228   0.06139  -0.01980  -0.05724
 107        3PX         0.00278   0.00326  -0.00226  -0.00264   0.00007
 108        3PY         0.00070  -0.00459   0.00048  -0.00242   0.00233
 109        3PZ        -0.00213   0.00209   0.01156  -0.00236  -0.00697
 110 12  H  1S          0.11588  -0.02112  -0.07932   0.08677  -0.16665
 111        2S          0.03432  -0.00885  -0.01660   0.02592  -0.06241
 112        3PX        -0.00216  -0.00231   0.00131   0.00355  -0.00084
 113        3PY         0.00278   0.00160  -0.00085   0.00179  -0.00790
 114        3PZ        -0.00662   0.00236   0.00421  -0.00488   0.00763
 115 13  H  1S         -0.06365  -0.06632   0.01741  -0.11918   0.30292
 116        2S         -0.02716  -0.00270  -0.00186  -0.04534   0.11219
 117        3PX        -0.00389  -0.00312   0.00192   0.00135   0.00750
 118        3PY        -0.00369  -0.00356   0.00059  -0.00791   0.01424
 119        3PZ         0.00178  -0.00087  -0.00086  -0.00103   0.00228
                          21        22        23        24        25
                           O         O         O         O         V
     Eigenvalues --    -0.52439  -0.45823  -0.44289  -0.42059   0.14482
   1 1   C  1S         -0.01805   0.00432  -0.03704  -0.01619  -0.03557
   2        2S          0.04973   0.00605   0.08174   0.03828   0.02107
   3        3S          0.07606  -0.17944   0.18698   0.16456   0.81688
   4        4PX         0.14001   0.00973  -0.03125  -0.22525  -0.01381
   5        4PY         0.15284  -0.01667   0.06913   0.10990  -0.03609
   6        4PZ        -0.24557  -0.05638  -0.08686  -0.03919   0.07161
   7        5PX         0.06620  -0.05043  -0.04548  -0.12667  -0.21718
   8        5PY         0.08914  -0.07133   0.03455   0.08168  -0.04351
   9        5PZ        -0.13935   0.00673  -0.08493  -0.03602   0.36862
  10        6D 0       -0.01700  -0.00618  -0.00293  -0.00723   0.00054
  11        6D+1       -0.00669  -0.00440  -0.00177   0.00621  -0.00866
  12        6D-1       -0.00504   0.00203  -0.00266   0.00016   0.00401
  13        6D+2        0.01231   0.00060  -0.00047  -0.00328   0.00480
  14        6D-2       -0.00250  -0.00028  -0.00063  -0.01397  -0.00579
  15 2   C  1S         -0.01925  -0.00287  -0.00279   0.01496  -0.05011
  16        2S          0.05481  -0.01140   0.00525  -0.02803   0.03236
  17        3S          0.00971   0.19620  -0.00989  -0.09963   1.35952
  18        4PX        -0.13504  -0.01817  -0.03507   0.14678   0.01624
  19        4PY        -0.07880  -0.03964   0.10721  -0.09628  -0.10189
  20        4PZ         0.28649   0.04863   0.00919   0.00030  -0.06492
  21        5PX        -0.04466  -0.08926  -0.00157   0.09714   0.08057
  22        5PY        -0.02842   0.01958   0.07521  -0.08005  -0.34632
  23        5PZ         0.13889   0.05565   0.00816  -0.01314  -0.25726
  24        6D 0       -0.01939  -0.00510   0.00059  -0.00849  -0.00006
  25        6D+1       -0.01104  -0.00237   0.00492   0.00310  -0.00087
  26        6D-1       -0.00028   0.00010   0.00387   0.00117   0.00111
  27        6D+2        0.01062  -0.00069   0.01381  -0.01014  -0.00206
  28        6D-2        0.00217  -0.00182   0.01590  -0.01870   0.00351
  29 3   N  1S         -0.00130   0.01188  -0.04809   0.03387   0.07302
  30        2S          0.00145   0.02803  -0.09819   0.06952   0.09046
  31        3S         -0.02993  -0.00199  -0.19382   0.15918   1.01161
  32        4PX        -0.06568   0.05800  -0.28216   0.20258  -0.08867
  33        4PY        -0.01733  -0.06197   0.29409  -0.18095  -0.02860
  34        4PZ         0.11300   0.00448  -0.00105   0.00035  -0.04972
  35        5PX         0.05583  -0.03277   0.25243  -0.17908   0.24492
  36        5PY         0.00934   0.06804  -0.24491   0.15377   0.10513
  37        5PZ        -0.05558   0.00339   0.00042  -0.00650   0.14100
  38        6D 0       -0.00790  -0.00044  -0.00323   0.00085   0.00378
  39        6D+1       -0.00941  -0.00048   0.00046  -0.00087   0.00124
  40        6D-1       -0.00420  -0.00141   0.00030   0.00063  -0.00030
  41        6D+2        0.00214   0.00041  -0.00073  -0.00233   0.00318
  42        6D-2        0.00429   0.00093  -0.00582   0.00182   0.00277
  43 4   C  1S         -0.00813  -0.00129  -0.00598  -0.02628  -0.00008
  44        2S          0.02426   0.00554   0.02200   0.07194   0.01817
  45        3S          0.00058   0.03635  -0.01689   0.05802  -0.29922
  46        4PX         0.05447  -0.01450   0.00864   0.11876  -0.01262
  47        4PY        -0.08603   0.01504  -0.03136  -0.09445  -0.00387
  48        4PZ         0.02888   0.16471   0.03866   0.01965   0.09348
  49        5PX        -0.02162   0.00520   0.00208   0.01361  -0.04076
  50        5PY        -0.02310  -0.01243   0.09316   0.06040   0.08401
  51        5PZ         0.02136   0.10361   0.01973  -0.00949   0.06501
  52        6D 0       -0.00253  -0.00757  -0.00040   0.00386   0.00049
  53        6D+1       -0.00266  -0.04533  -0.00482   0.00901   0.00862
  54        6D-1        0.01253  -0.03043  -0.00596  -0.00450  -0.00369
  55        6D+2       -0.00027   0.00367   0.02892   0.01876  -0.00428
  56        6D-2       -0.00593   0.00448  -0.02847  -0.04974   0.00167
  57 5   O  1S          0.02230   0.00246  -0.01090  -0.01550   0.01899
  58        2S          0.04599   0.00454  -0.02184  -0.02410   0.03454
  59        3S          0.07797   0.01663  -0.07749  -0.12161   0.15037
  60        4PX        -0.12367   0.01479   0.14322  -0.07190   0.04753
  61        4PY         0.12750  -0.04761   0.08642   0.18334  -0.01959
  62        4PZ         0.13865  -0.37990  -0.04500  -0.02485  -0.04103
  63        5PX        -0.08177   0.01843   0.10465  -0.06131   0.07211
  64        5PY         0.09012  -0.04179   0.08362   0.15649  -0.02234
  65        5PZ         0.10874  -0.32391  -0.04355  -0.02130  -0.04448
  66        6D 0        0.00438  -0.00296  -0.00099   0.00270  -0.00234
  67        6D+1        0.00122  -0.00762  -0.00017  -0.00021  -0.00018
  68        6D-1       -0.00468   0.00914   0.00121   0.00088  -0.00281
  69        6D+2        0.00035  -0.00080   0.00502   0.00283   0.00125
  70        6D-2        0.00362  -0.00120  -0.00288   0.00229  -0.00004
  71 6   O  1S          0.00207  -0.00045   0.00108  -0.00308   0.00559
  72        2S          0.00515  -0.00104   0.00060  -0.00588   0.00572
  73        3S         -0.00699   0.00125   0.01533  -0.00832   0.08558
  74        4PX         0.00661  -0.05337  -0.10081  -0.17526   0.01199
  75        4PY        -0.11202  -0.03240   0.35971   0.35871  -0.00085
  76        4PZ         0.01613   0.44116   0.05634  -0.07684  -0.08034
  77        5PX         0.00499  -0.04184  -0.07401  -0.13120   0.03548
  78        5PY        -0.08050  -0.01966   0.26326   0.27507  -0.00350
  79        5PZ         0.00825   0.34013   0.04519  -0.05890  -0.09396
  80        6D 0        0.00061   0.00517   0.00111   0.00115  -0.00083
  81        6D+1        0.00117   0.02346   0.00321  -0.00332   0.00159
  82        6D-1       -0.00012   0.00587   0.00256   0.00039  -0.00066
  83        6D+2        0.00248  -0.00307  -0.00689  -0.00823   0.00145
  84        6D-2       -0.00623  -0.00136   0.01091   0.00802   0.00020
  85 7   H  1S         -0.09873  -0.01756   0.06736  -0.05030  -0.02177
  86        2S         -0.05581  -0.02197   0.02863  -0.02685  -0.76285
  87        3PX         0.00571  -0.00157   0.00805  -0.00685   0.00299
  88        3PY        -0.00057   0.00177  -0.01030   0.00629   0.00170
  89        3PZ         0.00415   0.00230  -0.00869   0.00599   0.00738
  90 8   H  1S          0.12457  -0.00606   0.05315  -0.05638  -0.03710
  91        2S          0.05698   0.00329   0.02127  -0.02846  -0.70106
  92        3PX        -0.00689  -0.00171   0.00560  -0.00276   0.00551
  93        3PY        -0.00278   0.00230  -0.01413   0.01009   0.00289
  94        3PZ         0.00310  -0.00123   0.00494  -0.00461  -0.00481
  95 9   H  1S         -0.06505  -0.01403   0.06416  -0.00019   0.00085
  96        2S         -0.00394   0.00049  -0.04589   0.06616  -0.19541
  97        3PX         0.00516   0.00622  -0.01583   0.00511   0.00296
  98        3PY         0.00552  -0.00192   0.00237   0.00555  -0.00037
  99        3PZ         0.00654  -0.01604  -0.00394  -0.00028  -0.00166
 100 10  H  1S          0.04239   0.03697  -0.12964   0.18563  -0.00931
 101        2S          0.02163   0.02737  -0.05509   0.11128  -0.88066
 102        3PX        -0.00449  -0.00142   0.00364  -0.00375   0.00067
 103        3PY         0.00005   0.00159  -0.00359   0.00702  -0.00484
 104        3PZ         0.00686  -0.00034   0.00089  -0.00080  -0.00119
 105 11  H  1S         -0.25069  -0.05794   0.01324  -0.06156   0.01023
 106        2S         -0.11930  -0.03787   0.00481  -0.03353  -0.66174
 107        3PX        -0.00519   0.00104  -0.00204   0.00323   0.00072
 108        3PY        -0.00086  -0.00194   0.00106  -0.00113  -0.00242
 109        3PZ        -0.01273  -0.00238   0.00051  -0.00339  -0.00161
 110 12  H  1S         -0.21497  -0.06816  -0.05106  -0.06216  -0.00800
 111        2S         -0.10141  -0.03695  -0.03566  -0.05130  -0.71354
 112        3PX         0.00423   0.00138  -0.00025  -0.00546  -0.00392
 113        3PY         0.00183   0.00050   0.00079   0.00297  -0.00232
 114        3PZ         0.01092   0.00373   0.00185   0.00358   0.00322
 115 13  H  1S         -0.09232   0.02206   0.00438  -0.00335  -0.01985
 116        2S         -0.03288   0.00066  -0.04894  -0.04165  -0.37254
 117        3PX        -0.00142   0.00183   0.00196  -0.00246   0.00321
 118        3PY        -0.00321   0.00003   0.00031   0.00092   0.00026
 119        3PZ        -0.00765  -0.00219  -0.00100  -0.00125  -0.00194
                          26        27        28        29        30
                           V         V         V         V         V
     Eigenvalues --     0.18922   0.19841   0.21062   0.23203   0.26175
   1 1   C  1S         -0.04582  -0.01329  -0.04846  -0.06397  -0.02187
   2        2S          0.01797   0.04024   0.01207   0.02855   0.02203
   3        3S          1.66039   0.03747   1.62863   2.08175   0.66171
   4        4PX         0.00275  -0.05121  -0.01993   0.00616   0.01906
   5        4PY        -0.01621  -0.06300  -0.12914  -0.01108  -0.07210
   6        4PZ         0.10698  -0.07024   0.00340   0.07832   0.02318
   7        5PX        -0.05189  -0.33204  -0.17668   0.17301   0.10054
   8        5PY         0.14622  -0.35213  -0.56612  -0.22238  -0.31893
   9        5PZ         0.51603  -0.18623  -0.22265   0.38810  -0.01143
  10        6D 0       -0.01504  -0.00436   0.01131   0.00377  -0.01007
  11        6D+1       -0.00765  -0.00501   0.02171   0.00292  -0.00448
  12        6D-1        0.01119   0.00233  -0.01236  -0.00757   0.01054
  13        6D+2        0.00194  -0.00028   0.00145  -0.00574   0.00522
  14        6D-2        0.00416   0.00252   0.00079   0.00081  -0.00789
  15 2   C  1S         -0.01839  -0.07521   0.01035   0.04510   0.03132
[...]
 118        3PY        -0.00007   0.00000   0.00001   0.00003   0.00000
 119        3PZ         0.00028   0.00000   0.00001   0.00004   0.00000
                         116       117       118       119
 116        2S          0.04528
 117        3PX         0.00000   0.00042
 118        3PY         0.00000   0.00000   0.00162
 119        3PZ         0.00000   0.00000   0.00000   0.00033
     Gross orbital populations:
                           1
   1 1   C  1S          1.98884
   2        2S          0.87212
   3        3S          0.23929
   4        4PX         0.70080
   5        4PY         0.69557
   6        4PZ         0.68743
   7        5PX         0.22997
   8        5PY         0.32712
   9        5PZ         0.34893
  10        6D 0        0.01224
  11        6D+1        0.00631
  12        6D-1        0.00291
  13        6D+2        0.00767
  14        6D-2        0.01250
  15 2   C  1S          1.98906
  16        2S          0.86891
  17        3S          0.18274
  18        4PX         0.68374
  19        4PY         0.64127
  20        4PZ         0.69463
  21        5PX         0.26535
  22        5PY         0.19908
  23        5PZ         0.30947
  24        6D 0        0.01519
  25        6D+1        0.00820
  26        6D-1        0.00715
  27        6D+2        0.01381
  28        6D-2        0.01814
  29 3   N  1S          1.98944
  30        2S          0.95160
  31        3S          0.51921
  32        4PX         0.84272
  33        4PY         0.83257
  34        4PZ         0.72416
  35        5PX         0.56976
  36        5PY         0.57534
  37        5PZ         0.37489
  38        6D 0        0.00426
  39        6D+1        0.00687
  40        6D-1        0.00322
  41        6D+2        0.00533
  42        6D-2        0.00243
  43 4   C  1S          1.98992
  44        2S          0.91248
  45        3S          0.14029
  46        4PX         0.77372
  47        4PY         0.66677
  48        4PZ         0.44688
  49        5PX         0.13940
  50        5PY         0.09823
  51        5PZ         0.24709
  52        6D 0        0.01012
  53        6D+1        0.02843
  54        6D-1        0.02009
  55        6D+2        0.04896
  56        6D-2        0.05981
  57 5   O  1S          1.99043
  58        2S          1.05983
  59        3S          0.63522
  60        4PX         0.92020
  61        4PY         0.91337
  62        4PZ         1.05079
  63        5PX         0.45937
  64        5PY         0.52277
  65        5PZ         0.76116
  66        6D 0        0.00228
  67        6D+1        0.00055
  68        6D-1        0.00273
  69        6D+2        0.00871
  70        6D-2        0.00148
  71 6   O  1S          1.99072
  72        2S          1.07199
  73        3S          0.69107
  74        4PX         0.92571
  75        4PY         1.08753
  76        4PZ         0.81580
  77        5PX         0.44827
  78        5PY         0.69025
  79        5PZ         0.62049
  80        6D 0        0.00252
  81        6D+1        0.00703
  82        6D-1        0.00065
  83        6D+2        0.00683
  84        6D-2        0.00547
  85 7   H  1S          0.72693
  86        2S          0.09445
  87        3PX         0.01142
  88        3PY         0.00890
  89        3PZ         0.02706
  90 8   H  1S          0.72547
  91        2S          0.09011
  92        3PX         0.01965
  93        3PY         0.01266
  94        3PZ         0.01532
  95 9   H  1S          0.64470
  96        2S          0.06428
  97        3PX         0.05056
  98        3PY         0.01301
  99        3PZ         0.01631
 100 10  H  1S          0.77021
 101        2S          0.16840
 102        3PX         0.00807
 103        3PY         0.01177
 104        3PZ         0.00364
 105 11  H  1S          0.76588
 106        2S          0.15862
 107        3PX         0.00324
 108        3PY         0.00256
 109        3PZ         0.01779
 110 12  H  1S          0.75084
 111        2S          0.15888
 112        3PX         0.00368
 113        3PY         0.00377
 114        3PZ         0.01792
 115 13  H  1S          0.75228
 116        2S          0.15099
 117        3PX         0.00495
 118        3PY         0.01538
 119        3PZ         0.00464
          Condensed to atoms (all electrons):
               1          2          3          4          5          6
     1  C    5.126179   0.285720  -0.066295   0.325963  -0.130942  -0.096023
     2  C    0.285720   4.665099   0.248024  -0.047727   0.022759   0.002386
     3  N   -0.066295   0.248024   6.500666  -0.001009  -0.026823  -0.000054
     4  C    0.325963  -0.047727  -0.001009   4.254082   0.364449   0.717732
     5  O   -0.130942   0.022759  -0.026823   0.364449   7.831071  -0.083393
     6  O   -0.096023   0.002386  -0.000054   0.717732  -0.083393   7.809953
     7  H   -0.002717  -0.026861   0.368999  -0.000876   0.000763   0.000004
     8  H    0.007595  -0.016998   0.369211  -0.000073   0.000499   0.000005
     9  H   -0.008762  -0.015801   0.060977  -0.002695   0.343343   0.002195
    10  H   -0.035312   0.416668  -0.024051   0.005982  -0.000386  -0.000169
    11  H   -0.034513   0.415369  -0.029371  -0.004213  -0.000060   0.000473
    12  H    0.380531  -0.028520  -0.002996  -0.016655   0.002772   0.001424
    13  H    0.380260  -0.023385   0.004527  -0.012765   0.004848   0.009785
               7          8          9         10         11         12
     1  C   -0.002717   0.007595  -0.008762  -0.035312  -0.034513   0.380531
     2  C   -0.026861  -0.016998  -0.015801   0.416668   0.415369  -0.028520
     3  N    0.368999   0.369211   0.060977  -0.024051  -0.029371  -0.002996
     4  C   -0.000876  -0.000073  -0.002695   0.005982  -0.004213  -0.016655
     5  O    0.000763   0.000499   0.343343  -0.000386  -0.000060   0.002772
     6  O    0.000004   0.000005   0.002195  -0.000169   0.000473   0.001424
     7  H    0.552582  -0.024484  -0.001724  -0.008898   0.007609   0.004480
     8  H   -0.024484   0.540548  -0.001421  -0.001949  -0.009244  -0.000216
     9  H   -0.001724  -0.001421   0.412988   0.001795  -0.001599  -0.000636
    10  H   -0.008898  -0.001949   0.001795   0.648669  -0.029515  -0.007206
    11  H    0.007609  -0.009244  -0.001599  -0.029515   0.628681   0.006765
    12  H    0.004480  -0.000216  -0.000636  -0.007206   0.006765   0.602819
    13  H   -0.000116  -0.000263   0.000202  -0.003532  -0.002285  -0.007470
              13
     1  C    0.380260
     2  C   -0.023385
     3  N    0.004527
     4  C   -0.012765
     5  O    0.004848
     6  O    0.009785
     7  H   -0.000116
     8  H   -0.000263
     9  H    0.000202
    10  H   -0.003532
    11  H   -0.002285
    12  H   -0.007470
    13  H    0.578450
 Mulliken charges:
               1
     1  C   -0.131683
     2  C    0.103267
     3  N   -0.401805
     4  C    0.417805
     5  O   -0.328898
     6  O   -0.364317
     7  H    0.131239
     8  H    0.136791
     9  H    0.211139
    10  H    0.037904
    11  H    0.051904
    12  H    0.064908
    13  H    0.071746
 Sum of Mulliken charges =   0.00000
 Mulliken charges with hydrogens summed into heavy atoms:
               1
     1  C    0.004971
     2  C    0.193075
     3  N   -0.133774
     4  C    0.417805
     5  O   -0.117759
     6  O   -0.364317
 Electronic spatial extent (au):  <R**2>=            613.5528
 Charge=              0.0000 electrons
 Dipole moment (field-independent basis, Debye):
    X=              6.5884    Y=             -1.2079    Z=              0.6489  Tot=              6.7296
 Quadrupole moment (field-independent basis, Debye-Ang):
   XX=            -40.2948   YY=            -37.5278   ZZ=            -33.4913
   XY=              1.2644   XZ=             -0.5683   YZ=              0.0363
 Traceless Quadrupole moment (field-independent basis, Debye-Ang):
   XX=             -3.1902   YY=             -0.4231   ZZ=              3.6133
   XY=              1.2644   XZ=             -0.5683   YZ=              0.0363
 Octapole moment (field-independent basis, Debye-Ang**2):
  XXX=             41.3668  YYY=              0.5040  ZZZ=              1.4967  XYY=              3.8115
  XXY=              7.6785  XXZ=              2.2691  XZZ=              2.3868  YZZ=              2.0226
  YYZ=             -0.2009  XYZ=             -0.7039
 Hexadecapole moment (field-independent basis, Debye-Ang**3):
 XXXX=           -497.4401 YYYY=           -185.3837 ZZZZ=            -56.2330 XXXY=              9.5762
 XXXZ=             -1.6075 YYYX=              8.0060 YYYZ=              1.0583 ZZZX=              4.2100
 ZZZY=              0.1572 XXYY=           -114.6544 XXZZ=            -83.1557 YYZZ=            -41.9469
 XXYZ=             -2.1090 YYXZ=             -0.5679 ZZXY=              2.8461
 N-N= 2.488626706888D+02 E-N=-1.253183185277D+03  KE= 3.206051545349D+02
 Orbital energies and kinetic energies (alpha):
                                 1                 2
   1         O               -20.572557         28.827124
   2         O               -20.514984         28.830585
   3         O               -15.582532         21.834204
   4         O               -11.364152         15.819186
   5         O               -11.287375         15.814688
   6         O               -11.250389         15.808786
   7         O                -1.437122          2.750389
   8         O                -1.337782          2.997548
   9         O                -1.212277          1.891138
  10         O                -1.035644          1.618139
  11         O                -0.879448          1.607734
  12         O                -0.815686          2.051057
  13         O                -0.732376          1.307309
  14         O                -0.703277          1.323679
  15         O                -0.656820          1.696433
  16         O                -0.644874          1.780653
  17         O                -0.629762          1.744340
  18         O                -0.588567          1.530719
  19         O                -0.574573          1.880020
  20         O                -0.537245          1.541433
  21         O                -0.524389          1.425866
  22         O                -0.458229          2.188149
  23         O                -0.442893          2.004586
  24         O                -0.420589          2.028811
  25         V                 0.144824          0.673722
  26         V                 0.189219          0.856875
  27         V                 0.198412          0.651660
  28         V                 0.210620          1.187292
  29         V                 0.232028          0.681319
  30         V                 0.261752          0.831009
  31         V                 0.275868          0.940674
  32         V                 0.303802          1.085082
  33         V                 0.356823          1.166061
  34         V                 0.386431          1.381257
  35         V                 0.407784          1.471474
  36         V                 0.453138          1.107065
  37         V                 0.530322          1.421939
  38         V                 0.602496          1.564508
  39         V                 0.647046          2.235875
  40         V                 0.660064          1.761366
  41         V                 0.726392          3.175467
  42         V                 0.745647          2.063359
  43         V                 0.751456          1.968890
  44         V                 0.791405          2.840613
  45         V                 0.813359          2.134530
  46         V                 0.838692          2.568643
  47         V                 0.858823          2.505285
  48         V                 0.877611          2.414184
  49         V                 0.878577          2.420121
  50         V                 0.894972          2.527483
  51         V                 0.906089          2.461674
  52         V                 0.918441          2.178136
  53         V                 0.940486          2.421089
  54         V                 0.991481          3.304209
  55         V                 1.043822          2.516291
  56         V                 1.076332          2.586957
  57         V                 1.094949          2.644147
  58         V                 1.155942          2.970552
  59         V                 1.218096          2.832666
  60         V                 1.231708          2.676046
  61         V                 1.310559          3.201827
  62         V                 1.321693          3.053456
  63         V                 1.399590          3.039236
  64         V                 1.420963          3.280838
  65         V                 1.429575          3.241977
  66         V                 1.449514          2.606282
  67         V                 1.493650          2.457437
  68         V                 1.574061          2.253906
  69         V                 1.603327          2.813141
  70         V                 1.647984          3.664683
  71         V                 1.693710          2.407172
  72         V                 1.747942          2.755590
  73         V                 1.762283          2.681648
  74         V                 1.866508          2.728597
  75         V                 1.904708          3.107200
  76         V                 1.917054          2.896789
  77         V                 1.990442          2.928964
  78         V                 2.016757          3.051770
  79         V                 2.020938          3.075797
  80         V                 2.035932          2.990542
  81         V                 2.045769          2.864894
  82         V                 2.068436          3.010523
  83         V                 2.094796          2.939569
  84         V                 2.153801          2.848646
  85         V                 2.163702          3.235395
  86         V                 2.191717          3.108937
  87         V                 2.193912          3.160003
  88         V                 2.284263          3.587986
  89         V                 2.309447          3.625308
  90         V                 2.334543          3.340410
  91         V                 2.419851          3.708027
  92         V                 2.451355          3.682492
  93         V                 2.568858          3.941043
  94         V                 2.606431          4.031619
  95         V                 2.632698          3.935249
  96         V                 2.680771          4.044030
  97         V                 2.777746          4.088576
  98         V                 2.785499          4.330916
  99         V                 2.859606          4.153009
 100         V                 2.891832          4.172745
 101         V                 3.022743          4.310660
 102         V                 3.028346          4.267527
 103         V                 3.085309          4.370351
 104         V                 3.095019          4.265901
 105         V                 3.185146          4.610566
 106         V                 3.216739          4.667089
 107         V                 3.238873          4.498818
 108         V                 3.285783          4.610943
 109         V                 3.328775          4.715521
 110         V                 3.404029          4.795952
 111         V                 3.430252          4.698814
 112         V                 3.513448          5.177757
 113         V                 3.564271          5.222619
 114         V                 3.645468          4.910385
 115         V                 3.776189          5.396406
 116         V                 3.821308          5.374138
 117         V                 3.876956          5.511572
 118         V                 4.123326          6.169051
 119         V                 4.285400          5.940742
 Total kinetic energy from orbitals= 3.206051545349D+02
 No NMR shielding tensors so no spin-rotation constants.
 Leave Link  601 at Wed Apr 29 13:38:36 2026, MaxMem=    33554432 cpu:         0.1
 (Enter /opt/g09/g09/l602.exe)
 FitSet:  NAtFit=    13 NAtPot=    13 NAtFrz=     0 MDM=    17 TotChg=   0.00000
 Merz-Kollman atomic radii used.

 **********************************************************************

            Electrostatic Properties Using The SCF Density

 **********************************************************************

       Atomic Center    1 is at   0.021352 -0.964774  0.312200
       Atomic Center    2 is at   1.359375 -0.676392 -0.366174
       Atomic Center    3 is at   1.939857  0.565193  0.127851
       Atomic Center    4 is at  -1.090808  0.034034  0.025573
       Atomic Center    5 is at  -0.730886  1.300632 -0.036523
       Atomic Center    6 is at  -2.214750 -0.301098 -0.107598
       Atomic Center    7 is at   2.299004  0.458120  1.061000
       Atomic Center    8 is at   2.698725  0.878484 -0.450315
       Atomic Center    9 is at   0.216459  1.398712  0.066369
       Atomic Center   10 is at   2.019132 -1.538065 -0.224720
       Atomic Center   11 is at   1.207710 -0.572917 -1.442164
       Atomic Center   12 is at   0.158807 -0.990841  1.398333
       Atomic Center   13 is at  -0.353266 -1.943332  0.019915
     694 points will be used for fitting atomic charges
 Fitting point charges to electrostatic potential
 Charges from ESP fit, RMS=   0.00164 RRMS=   0.05678:
 ESP charges:
               1
     1  C   -0.364808
     2  C    0.427474
     3  N   -0.846065
     4  C    0.892860
     5  O   -0.641564
     6  O   -0.618099
     7  H    0.323568
     8  H    0.324085
     9  H    0.377925
    10  H   -0.048721
    11  H   -0.012218
    12  H    0.109487
    13  H    0.076077
 Sum of ESP charges =   0.00000
 ESP charges with hydrogens summed into heavy atoms:
               1
     1  C   -0.179244
     2  C    0.366535
     3  N   -0.198413
     4  C    0.892860
     5  O   -0.263639
     6  O   -0.618099
 Charge=   0.00000 Dipole=     6.5979    -1.1824     0.6715 Tot=     6.7366
 -----------------------------------------------------------------

              Electrostatic Properties (Atomic Units)

 -----------------------------------------------------------------
    Center     Electric         -------- Electric Field --------
               Potential          X             Y             Z
 -----------------------------------------------------------------
    1 Atom    -14.667051
    2 Atom    -14.626556
    3 Atom    -18.286464
    4 Atom    -14.562237
    5 Atom    -22.277582
    6 Atom    -22.341914
    7 Atom     -1.019387
    8 Atom     -1.019361
    9 Atom     -0.970406
   10 Atom     -1.095211
   11 Atom     -1.088093
   12 Atom     -1.078190
   13 Atom     -1.090911
 -----------------------------------------------------------------
 Leave Link  602 at Wed Apr 29 13:38:36 2026, MaxMem=    33554432 cpu:         0.0
 (Enter /opt/g09/g09/l9999.exe)

 Test job not archived.
 1\1\GINC-KADET27\SP\RHF\def2SVP\C3H7N1O2\MDOROHUN\29-Apr-2026\0\\#P RH
 F/def2SVP Pop(Full,ESP) GFInput IOP(6/7=3)\\ESP dla struktury zoptymal
 izowanej bez wody\\0,1\C\C,1,1.527632\N,2,1.456899,1,111.056\C,1,1.522
 062,2,115.626,3,64.697,0\O,4,1.318207,1,116.097,2,-38.725,0\O,4,1.1803
 79,1,122.052,2,142.71,0\H,3,1.005593,2,111.483,1,73.204,0\H,3,1.004145
 ,2,111.824,1,-166.655,0\H,5,0.957951,4,111.305,1,3.078,0\H,2,1.094427,
 1,108.783,4,-170.63,0\H,2,1.091542,1,109.508,4,-54.478,0\H,1,1.095106,
 4,107.104,6,-94.856,0\H,1,1.087817,4,106.743,6,19.196,0\\Version=ES64L
 -G09RevD.01\State=1-A\HF=-321.6298886\RMSD=9.805e-09\Dipole=-0.0303807
 ,1.65389,2.0672622\Quadrupole=0.651146,0.0148389,-0.6659849,1.2721947,
 -0.3540419,-2.3142657\PG=C01 [X(C3H7N1O2)]\\@


 BULLDOZER: SOMEONE WHO SLEEPS THROUGH SPEECHES.
 Job cpu time:       0 days  0 hours  0 minutes  1.1 seconds.
 File lengths (MBytes):  RWF=      7 Int=      0 D2E=      0 Chk=      2 Scr=      1
 Normal termination of Gaussian 09 at Wed Apr 29 13:38:36 2026.
