 Entering Gaussian System, Link 0=/opt/g09/g09/g09
 Input=b-ala_opt_h2o.inp
 Output=b-ala_opt_h2o.log
 Initial command:
 /opt/g09/g09/l1.exe "/tmp/Gau-8918.inp" -scrdir="/tmp/"
 Entering Link 1 = /opt/g09/g09/l1.exe PID=      8920.
  
 Copyright (c) 1988,1990,1992,1993,1995,1998,2003,2009,2013,
            Gaussian, Inc.  All Rights Reserved.
  
 This is part of the Gaussian(R) 09 program.  It is based on
 the Gaussian(R) 03 system (copyright 2003, Gaussian, Inc.),
 the Gaussian(R) 98 system (copyright 1998, Gaussian, Inc.),
 the Gaussian(R) 94 system (copyright 1995, Gaussian, Inc.),
 the Gaussian 92(TM) system (copyright 1992, Gaussian, Inc.),
 the Gaussian 90(TM) system (copyright 1990, Gaussian, Inc.),
 the Gaussian 88(TM) system (copyright 1988, Gaussian, Inc.),
 the Gaussian 86(TM) system (copyright 1986, Carnegie Mellon
 University), and the Gaussian 82(TM) system (copyright 1983,
 Carnegie Mellon University). Gaussian is a federally registered
 trademark of Gaussian, Inc.
  
 This software contains proprietary and confidential information,
 including trade secrets, belonging to Gaussian, Inc.
  
 This software is provided under written license and may be
 used, copied, transmitted, or stored only in accord with that
 written license.
  
 The following legend is applicable only to US Government
 contracts under FAR:
  
                    RESTRICTED RIGHTS LEGEND
  
 Use, reproduction and disclosure by the US Government is
 subject to restrictions as set forth in subparagraphs (a)
 and (c) of the Commercial Computer Software - Restricted
 Rights clause in FAR 52.227-19.
  
 Gaussian, Inc.
 340 Quinnipiac St., Bldg. 40, Wallingford CT 06492
  
  
 ---------------------------------------------------------------
 Warning -- This program may not be used in any manner that
 competes with the business of Gaussian, Inc. or will provide
 assistance to any competitor of Gaussian, Inc.  The licensee
 of this program is prohibited from giving any competitor of
 Gaussian, Inc. access to this program.  By using this program,
 the user acknowledges that Gaussian, Inc. is engaged in the
 business of creating and licensing software in the field of
 computational chemistry and represents and warrants to the
 licensee that it is not a competitor of Gaussian, Inc. and that
 it will not use this program in any manner prohibited above.
 ---------------------------------------------------------------
  

 Cite this work as:
 Gaussian 09, Revision D.01,
 M. J. Frisch, G. W. Trucks, H. B. Schlegel, G. E. Scuseria, 
 M. A. Robb, J. R. Cheeseman, G. Scalmani, V. Barone, B. Mennucci, 
 G. A. Petersson, H. Nakatsuji, M. Caricato, X. Li, H. P. Hratchian, 
 A. F. Izmaylov, J. Bloino, G. Zheng, J. L. Sonnenberg, M. Hada, 
 M. Ehara, K. Toyota, R. Fukuda, J. Hasegawa, M. Ishida, T. Nakajima, 
 Y. Honda, O. Kitao, H. Nakai, T. Vreven, J. A. Montgomery, Jr., 
 J. E. Peralta, F. Ogliaro, M. Bearpark, J. J. Heyd, E. Brothers, 
 K. N. Kudin, V. N. Staroverov, T. Keith, R. Kobayashi, J. Normand, 
 K. Raghavachari, A. Rendell, J. C. Burant, S. S. Iyengar, J. Tomasi, 
 M. Cossi, N. Rega, J. M. Millam, M. Klene, J. E. Knox, J. B. Cross, 
 V. Bakken, C. Adamo, J. Jaramillo, R. Gomperts, R. E. Stratmann, 
 O. Yazyev, A. J. Austin, R. Cammi, C. Pomelli, J. W. Ochterski, 
 R. L. Martin, K. Morokuma, V. G. Zakrzewski, G. A. Voth, 
 P. Salvador, J. J. Dannenberg, S. Dapprich, A. D. Daniels, 
 O. Farkas, J. B. Foresman, J. V. Ortiz, J. Cioslowski, 
 and D. J. Fox, Gaussian, Inc., Wallingford CT, 2013.
 
 ******************************************
 Gaussian 09:  ES64L-G09RevD.01 24-Apr-2013
                29-Apr-2026 
 ******************************************
 ----------------------------------------------------------------------
 #P RHF/def2SVP SCRF(PCM,solvent=water) Opt Pop=Full GFInput IOP(6/7=3)
 ----------------------------------------------------------------------
 1/14=-1,18=20,19=15,38=1/1,3;
 2/9=110,12=2,17=6,18=5,40=1/2;
 3/5=43,7=101,11=1,16=1,24=10,25=1,30=1,70=2201,71=1,72=1,116=1/1,2,3;
 4//1;
 5/5=2,38=5,53=1/2;
 6/7=3,28=1/1;
 7//1,2,3,16;
 1/14=-1,18=20,19=15/3(2);
 2/9=110/2;
 99//99;
 2/9=110/2;
 3/5=43,7=101,11=1,16=1,25=1,30=1,70=2205,71=1,72=1,116=1/1,2,3;
 4/5=5,16=3,69=1/1;
 5/5=2,38=5,53=1/2;
 7//1,2,3,16;
 1/14=-1,18=20,19=15/3(-5);
 2/9=110/2;
 6/7=3,19=2,28=1/1;
 99/9=1/99;
 Leave Link    1 at Wed Apr 29 13:00:31 2026, MaxMem=           0 cpu:         0.0
 (Enter /opt/g09/g09/l101.exe)
 --------------------------------
 Optymalizacja b-alanina w wodzie
 --------------------------------
 Symbolic Z-matrix:
 Charge =  0 Multiplicity = 1
 c
 c                    1    cc2
 c                    2    cc3      1    ccc3
 n                    3    nc4      2    ncc4     1    dih4     0
 h                    4    hn5      3    hnc5     2    dih5     0
 h                    4    hn6      3    hnc6     5    dih6     0
 h                    4    hn7      5    hnh7     6    dih7     0
 h                    3    hc8      4    hcn8     2    dih8     0
 h                    3    hc9      4    hcn9     2    dih9     0
 h                    2    hc10     1    hcc10    3    dih10    0
 h                    2    hc11     3    hcc11    1    dih11    0
 o                    1    oc12     2    occ12    3    dih12    0
 o                    1    oc13     12   oco13    2    dih13    0
       Variables:
  cc2                   1.5                      
  cc3                   1.5                      
  ccc3                109.471                    
  nc4                   1.46                     
  ncc4                109.471                    
  dih4                 60.                       
  hn5                   1.03                     
  hnc5                109.471                    
  dih5                120.                       
  hn6                   1.03                     
  hnc6                109.471                    
  dih6                120.                       
  hn7                   1.03                     
  hnh7                109.471                    
  dih7               -120.                       
  hc8                   1.07                     
  hcn8                109.471                    
  dih8               -120.                       
  hc9                   1.07                     
  hcn9                109.471                    
  dih9                120.                       
  hc10                  1.07                     
  hcc10               109.471                    
  dih10               120.                       
  hc11                  1.07                     
  hcc11               109.471                    
  dih11               120.                       
  oc12                  1.24                     
  occ12               120.                       
  dih12               180.                       
  oc13                  1.38                     
  oco13               120.                       
  dih13               180.                       
 
     9 tetrahedral angles replaced.
 NAtoms=     13 NQM=       13 NQMF=       0 NMMI=      0 NMMIF=      0
                NMic=       0 NMicF=      0.
                    Isotopes and Nuclear Properties:
 (Nuclear quadrupole moments (NQMom) in fm**2, nuclear magnetic moments (NMagM)
  in nuclear magnetons)

  Atom         1           2           3           4           5           6           7           8           9          10
 IAtWgt=          12          12          12          14           1           1           1           1           1           1
 AtmWgt=  12.0000000  12.0000000  12.0000000  14.0030740   1.0078250   1.0078250   1.0078250   1.0078250   1.0078250   1.0078250
 NucSpn=           0           0           0           2           1           1           1           1           1           1
 AtZEff=   0.0000000   0.0000000   0.0000000   0.0000000   0.0000000   0.0000000   0.0000000   0.0000000   0.0000000   0.0000000
 NQMom=    0.0000000   0.0000000   0.0000000   2.0440000   0.0000000   0.0000000   0.0000000   0.0000000   0.0000000   0.0000000
 NMagM=    0.0000000   0.0000000   0.0000000   0.4037610   2.7928460   2.7928460   2.7928460   2.7928460   2.7928460   2.7928460
 AtZNuc=   6.0000000   6.0000000   6.0000000   7.0000000   1.0000000   1.0000000   1.0000000   1.0000000   1.0000000   1.0000000

  Atom        11          12          13
 IAtWgt=           1          16          16
 AtmWgt=   1.0078250  15.9949146  15.9949146
 NucSpn=           1           0           0
 AtZEff=   0.0000000   0.0000000   0.0000000
 NQMom=    0.0000000   0.0000000   0.0000000
 NMagM=    2.7928460   0.0000000   0.0000000
 AtZNuc=   1.0000000   8.0000000   8.0000000
 Leave Link  101 at Wed Apr 29 13:00:31 2026, MaxMem=    33554432 cpu:         0.1
 (Enter /opt/g09/g09/l103.exe)

 GradGradGradGradGradGradGradGradGradGradGradGradGradGradGradGradGradGrad
 Berny optimization.
 Initialization pass.
                           ----------------------------
                           !    Initial Parameters    !
                           ! (Angstroms and Degrees)  !
 --------------------------                            --------------------------
 ! Name  Definition              Value          Derivative Info.                !
 --------------------------------------------------------------------------------
 ! R1    R(1,2)                  1.5            estimate D2E/DX2                !
 ! R2    R(1,12)                 1.24           estimate D2E/DX2                !
 ! R3    R(1,13)                 1.38           estimate D2E/DX2                !
 ! R4    R(2,3)                  1.5            estimate D2E/DX2                !
 ! R5    R(2,10)                 1.07           estimate D2E/DX2                !
 ! R6    R(2,11)                 1.07           estimate D2E/DX2                !
 ! R7    R(3,4)                  1.46           estimate D2E/DX2                !
 ! R8    R(3,8)                  1.07           estimate D2E/DX2                !
 ! R9    R(3,9)                  1.07           estimate D2E/DX2                !
 ! R10   R(4,5)                  1.03           estimate D2E/DX2                !
 ! R11   R(4,6)                  1.03           estimate D2E/DX2                !
 ! R12   R(4,7)                  1.03           estimate D2E/DX2                !
 ! A1    A(2,1,12)             120.0            estimate D2E/DX2                !
 ! A2    A(2,1,13)             120.0            estimate D2E/DX2                !
 ! A3    A(12,1,13)            120.0            estimate D2E/DX2                !
 ! A4    A(1,2,3)              109.4712         estimate D2E/DX2                !
 ! A5    A(1,2,10)             109.4712         estimate D2E/DX2                !
 ! A6    A(1,2,11)             109.4712         estimate D2E/DX2                !
 ! A7    A(3,2,10)             109.4712         estimate D2E/DX2                !
 ! A8    A(3,2,11)             109.4712         estimate D2E/DX2                !
 ! A9    A(10,2,11)            109.4712         estimate D2E/DX2                !
 ! A10   A(2,3,4)              109.4712         estimate D2E/DX2                !
 ! A11   A(2,3,8)              109.4712         estimate D2E/DX2                !
 ! A12   A(2,3,9)              109.4712         estimate D2E/DX2                !
 ! A13   A(4,3,8)              109.4712         estimate D2E/DX2                !
 ! A14   A(4,3,9)              109.4712         estimate D2E/DX2                !
 ! A15   A(8,3,9)              109.4712         estimate D2E/DX2                !
 ! A16   A(3,4,5)              109.4712         estimate D2E/DX2                !
 ! A17   A(3,4,6)              109.4712         estimate D2E/DX2                !
 ! A18   A(3,4,7)              109.4712         estimate D2E/DX2                !
 ! A19   A(5,4,6)              109.4712         estimate D2E/DX2                !
 ! A20   A(5,4,7)              109.4712         estimate D2E/DX2                !
 ! A21   A(6,4,7)              109.4712         estimate D2E/DX2                !
 ! D1    D(12,1,2,3)           180.0            estimate D2E/DX2                !
 ! D2    D(12,1,2,10)          -60.0            estimate D2E/DX2                !
 ! D3    D(12,1,2,11)           60.0            estimate D2E/DX2                !
 ! D4    D(13,1,2,3)             0.0            estimate D2E/DX2                !
 ! D5    D(13,1,2,10)          120.0            estimate D2E/DX2                !
 ! D6    D(13,1,2,11)         -120.0            estimate D2E/DX2                !
 ! D7    D(1,2,3,4)             60.0            estimate D2E/DX2                !
 ! D8    D(1,2,3,8)            180.0            estimate D2E/DX2                !
 ! D9    D(1,2,3,9)            -60.0            estimate D2E/DX2                !
 ! D10   D(10,2,3,4)           -60.0            estimate D2E/DX2                !
 ! D11   D(10,2,3,8)            60.0            estimate D2E/DX2                !
 ! D12   D(10,2,3,9)           180.0            estimate D2E/DX2                !
 ! D13   D(11,2,3,4)           180.0            estimate D2E/DX2                !
 ! D14   D(11,2,3,8)           -60.0            estimate D2E/DX2                !
 ! D15   D(11,2,3,9)            60.0            estimate D2E/DX2                !
 ! D16   D(2,3,4,5)            120.0            estimate D2E/DX2                !
 ! D17   D(2,3,4,6)           -120.0            estimate D2E/DX2                !
 ! D18   D(2,3,4,7)              0.0            estimate D2E/DX2                !
 ! D19   D(8,3,4,5)              0.0            estimate D2E/DX2                !
 ! D20   D(8,3,4,6)            120.0            estimate D2E/DX2                !
 ! D21   D(8,3,4,7)           -120.0            estimate D2E/DX2                !
 ! D22   D(9,3,4,5)           -120.0            estimate D2E/DX2                !
 ! D23   D(9,3,4,6)              0.0            estimate D2E/DX2                !
 ! D24   D(9,3,4,7)            120.0            estimate D2E/DX2                !
 --------------------------------------------------------------------------------
 Trust Radius=3.00D-01 FncErr=1.00D-07 GrdErr=1.00D-07
 Number of steps in this run=     67 maximum allowed number of steps=    100.
 GradGradGradGradGradGradGradGradGradGradGradGradGradGradGradGradGradGrad

 Leave Link  103 at Wed Apr 29 13:00:31 2026, MaxMem=    33554432 cpu:         0.0
 (Enter /opt/g09/g09/l202.exe)
                          Input orientation:                          
 ---------------------------------------------------------------------
 Center     Atomic      Atomic             Coordinates (Angstroms)
 Number     Number       Type             X           Y           Z
 ---------------------------------------------------------------------
      1          6           0        0.000000    0.000000    0.000000
      2          6           0        0.000000    0.000000    1.500000
      3          6           0        1.414214    0.000000    2.000000
      4          7           0        2.102464    1.192085    1.513333
      5          1           0        2.426162    1.752746    2.314444
      6          1           0        2.911709    0.911755    0.941111
      7          1           0        1.455069    1.752746    0.941111
      8          1           0        1.414214    0.000000    3.070000
      9          1           0        1.918616   -0.873651    1.643333
     10          1           0       -0.504403    0.873651    1.856667
     11          1           0       -0.504403   -0.873651    1.856667
     12          8           0       -1.073872    0.000000   -0.620000
     13          8           0        1.195115    0.000000   -0.690000
 ---------------------------------------------------------------------
                    Distance matrix (angstroms):
                    1          2          3          4          5
     1  C    0.000000
     2  C    1.500000   0.000000
     3  C    2.449490   1.500000   0.000000
     4  N    2.851596   2.416940   1.460000   0.000000
     5  H    3.783521   3.101887   2.048178   1.030000   0.000000
     6  H    3.192966   3.101887   2.048178   1.030000   1.681983
     7  H    2.464758   2.345570   2.048178   1.030000   1.681983
     8  H    3.380074   2.113031   1.070000   2.077972   2.160329
     9  H    2.672995   2.113031   1.070000   2.077972   2.757890
    10  H    2.113031   1.070000   2.113031   2.648591   3.093635
    11  H    2.113031   1.070000   2.113031   3.343785   3.961784
    12  O    1.240000   2.376468   3.613166   4.007653   4.892169
    13  O    1.380000   2.494875   2.698908   2.664400   3.689754
                    6          7          8          9         10
     6  H    0.000000
     7  H    1.681983   0.000000
     8  H    2.757890   2.757890   0.000000
     9  H    2.160329   2.757890   1.747303   0.000000
    10  H    3.536879   2.334647   2.432393   2.994929   0.000000
    11  H    3.961784   3.402313   2.432393   2.432393   1.747303
    12  O    4.376438   3.450322   4.450468   3.852393   2.687274
    13  O    2.537423   2.408364   3.766378   2.594449   3.183887
                   11         12         13
    11  H    0.000000
    12  O    2.687274   0.000000
    13  O    3.183887   2.270066   0.000000
 Stoichiometry    C3H7NO2
 Framework group  C1[X(C3H7NO2)]
 Deg. of freedom    33
 Full point group                 C1      NOp   1
 Largest Abelian subgroup         C1      NOp   1
 Largest concise Abelian subgroup C1      NOp   1
                         Standard orientation:                         
 ---------------------------------------------------------------------
 Center     Atomic      Atomic             Coordinates (Angstroms)
 Number     Number       Type             X           Y           Z
 ---------------------------------------------------------------------
      1          6           0        1.017444    0.023841    0.023623
      2          6           0        0.007555   -1.085183    0.009882
      3          6           0       -1.324488   -0.553930    0.449694
      4          7           0       -1.751266    0.504221   -0.461226
      5          1           0       -2.645446    0.240361   -0.899084
      6          1           0       -1.872116    1.381710    0.064425
      7          1           0       -1.037320    0.637097   -1.191653
      8          1           0       -2.044875   -1.345034    0.439892
      9          1           0       -1.241514   -0.159361    1.440820
     10          1           0       -0.075419   -1.479752   -0.981244
     11          1           0        0.320331   -1.860678    0.677474
     12          8           0        2.190723   -0.201874   -0.308143
     13          8           0        0.640796    1.295342    0.405488
 ---------------------------------------------------------------------
 Rotational constants (GHZ):      6.8070112      2.6325195      2.1480036
 Leave Link  202 at Wed Apr 29 13:00:31 2026, MaxMem=    33554432 cpu:         0.0
 (Enter /opt/g09/g09/l301.exe)
 Standard basis: def2SVP (5D, 7F)
 Ernie: Thresh=  0.10000D-02 Tol=  0.10000D-05 Strict=F.
 AO basis set in the form of general basis input (Overlap normalization):
      1 0
 S   5 1.00       0.000000000000
      0.1238401694D+04  0.5517365048D-02
      0.1862900499D+03  0.4108882856D-01
      0.4225117635D+02  0.1822538213D+00
      0.1167655793D+02  0.4682845944D+00
      0.3593050648D+01  0.4457581734D+00
 S   1 1.00       0.000000000000
      0.4024514736D+00  0.1000000000D+01
 S   1 1.00       0.000000000000
      0.1309018267D+00  0.1000000000D+01
 P   3 1.00       0.000000000000
      0.9468097062D+01  0.5688833201D-01
      0.2010354514D+01  0.3129405934D+00
      0.5477100471D+00  0.7606501651D+00
 P   1 1.00       0.000000000000
      0.1526861379D+00  0.1000000000D+01
 D   1 1.00       0.000000000000
      0.8000000000D+00  0.1000000000D+01
 ****
      2 0
 S   5 1.00       0.000000000000
      0.1238401694D+04  0.5517365048D-02
      0.1862900499D+03  0.4108882856D-01
      0.4225117635D+02  0.1822538213D+00
      0.1167655793D+02  0.4682845944D+00
      0.3593050648D+01  0.4457581734D+00
 S   1 1.00       0.000000000000
      0.4024514736D+00  0.1000000000D+01
 S   1 1.00       0.000000000000
      0.1309018267D+00  0.1000000000D+01
 P   3 1.00       0.000000000000
      0.9468097062D+01  0.5688833201D-01
      0.2010354514D+01  0.3129405934D+00
      0.5477100471D+00  0.7606501651D+00
 P   1 1.00       0.000000000000
      0.1526861379D+00  0.1000000000D+01
 D   1 1.00       0.000000000000
      0.8000000000D+00  0.1000000000D+01
 ****
      3 0
 S   5 1.00       0.000000000000
      0.1238401694D+04  0.5517365048D-02
      0.1862900499D+03  0.4108882856D-01
      0.4225117635D+02  0.1822538213D+00
      0.1167655793D+02  0.4682845944D+00
      0.3593050648D+01  0.4457581734D+00
 S   1 1.00       0.000000000000
      0.4024514736D+00  0.1000000000D+01
 S   1 1.00       0.000000000000
      0.1309018267D+00  0.1000000000D+01
 P   3 1.00       0.000000000000
      0.9468097062D+01  0.5688833201D-01
      0.2010354514D+01  0.3129405934D+00
      0.5477100471D+00  0.7606501651D+00
 P   1 1.00       0.000000000000
      0.1526861379D+00  0.1000000000D+01
 D   1 1.00       0.000000000000
      0.8000000000D+00  0.1000000000D+01
 ****
      4 0
 S   5 1.00       0.000000000000
      0.1712841585D+04 -0.5447799580D-02
      0.2576481268D+03 -0.4062717463D-01
      0.5845824585D+02 -0.1811196225D+00
      0.1619836791D+02 -0.4684397556D+00
      0.5005260081D+01 -0.4461684629D+00
 S   1 1.00       0.000000000000
      0.5873185657D+00  0.1000000000D+01
 S   1 1.00       0.000000000000
      0.1876459225D+00  0.1000000000D+01
 P   3 1.00       0.000000000000
      0.1357147023D+02 -0.5884811697D-01
      0.2925737287D+01 -0.3202462476D+00
      0.7992775075D+00 -0.7532822652D+00
 P   1 1.00       0.000000000000
      0.2195434803D+00  0.1000000000D+01
 D   1 1.00       0.000000000000
      0.1000000000D+01  0.1000000000D+01
 ****
      5 0
 S   3 1.00       0.000000000000
      0.1301070100D+02  0.3348548481D-01
      0.1962257200D+01  0.2347218709D+00
      0.4445379600D+00  0.8137702853D+00
 S   1 1.00       0.000000000000
      0.1219496200D+00  0.1000000000D+01
 P   1 1.00       0.000000000000
      0.8000000000D+00  0.1000000000D+01
 ****
      6 0
 S   3 1.00       0.000000000000
      0.1301070100D+02  0.3348548481D-01
      0.1962257200D+01  0.2347218709D+00
      0.4445379600D+00  0.8137702853D+00
 S   1 1.00       0.000000000000
      0.1219496200D+00  0.1000000000D+01
 P   1 1.00       0.000000000000
      0.8000000000D+00  0.1000000000D+01
 ****
      7 0
 S   3 1.00       0.000000000000
      0.1301070100D+02  0.3348548481D-01
      0.1962257200D+01  0.2347218709D+00
      0.4445379600D+00  0.8137702853D+00
 S   1 1.00       0.000000000000
      0.1219496200D+00  0.1000000000D+01
 P   1 1.00       0.000000000000
      0.8000000000D+00  0.1000000000D+01
 ****
      8 0
 S   3 1.00       0.000000000000
      0.1301070100D+02  0.3348548481D-01
      0.1962257200D+01  0.2347218709D+00
      0.4445379600D+00  0.8137702853D+00
 S   1 1.00       0.000000000000
      0.1219496200D+00  0.1000000000D+01
 P   1 1.00       0.000000000000
      0.8000000000D+00  0.1000000000D+01
 ****
      9 0
 S   3 1.00       0.000000000000
      0.1301070100D+02  0.3348548481D-01
      0.1962257200D+01  0.2347218709D+00
      0.4445379600D+00  0.8137702853D+00
 S   1 1.00       0.000000000000
      0.1219496200D+00  0.1000000000D+01
 P   1 1.00       0.000000000000
      0.8000000000D+00  0.1000000000D+01
 ****
     10 0
 S   3 1.00       0.000000000000
      0.1301070100D+02  0.3348548481D-01
      0.1962257200D+01  0.2347218709D+00
      0.4445379600D+00  0.8137702853D+00
 S   1 1.00       0.000000000000
      0.1219496200D+00  0.1000000000D+01
 P   1 1.00       0.000000000000
      0.8000000000D+00  0.1000000000D+01
 ****
     11 0
 S   3 1.00       0.000000000000
      0.1301070100D+02  0.3348548481D-01
      0.1962257200D+01  0.2347218709D+00
      0.4445379600D+00  0.8137702853D+00
 S   1 1.00       0.000000000000
      0.1219496200D+00  0.1000000000D+01
 P   1 1.00       0.000000000000
      0.8000000000D+00  0.1000000000D+01
 ****
     12 0
 S   5 1.00       0.000000000000
      0.2266176779D+04 -0.5389350392D-02
      0.3408701019D+03 -0.4023472139D-01
      0.7736313517D+02 -0.1800818421D+00
      0.2147964494D+02 -0.4682885766D+00
      0.6658943312D+01 -0.4469261716D+00
 S   1 1.00       0.000000000000
      0.8097597567D+00  0.1000000000D+01
 S   1 1.00       0.000000000000
      0.2553077223D+00  0.1000000000D+01
 P   3 1.00       0.000000000000
      0.1772150432D+02  0.6263024876D-01
      0.3863550544D+01  0.3333113848D+00
      0.1048092088D+01  0.7414863831D+00
 P   1 1.00       0.000000000000
      0.2764154441D+00  0.1000000000D+01
 D   1 1.00       0.000000000000
      0.1200000000D+01  0.1000000000D+01
 ****
     13 0
 S   5 1.00       0.000000000000
      0.2266176779D+04 -0.5389350392D-02
      0.3408701019D+03 -0.4023472139D-01
      0.7736313517D+02 -0.1800818421D+00
      0.2147964494D+02 -0.4682885766D+00
      0.6658943312D+01 -0.4469261716D+00
 S   1 1.00       0.000000000000
      0.8097597567D+00  0.1000000000D+01
 S   1 1.00       0.000000000000
      0.2553077223D+00  0.1000000000D+01
 P   3 1.00       0.000000000000
      0.1772150432D+02  0.6263024876D-01
      0.3863550544D+01  0.3333113848D+00
      0.1048092088D+01  0.7414863831D+00
 P   1 1.00       0.000000000000
      0.2764154441D+00  0.1000000000D+01
 D   1 1.00       0.000000000000
      0.1200000000D+01  0.1000000000D+01
 ****

 There are   125 symmetry adapted cartesian basis functions of A   symmetry.
 There are   119 symmetry adapted basis functions of A   symmetry.
   119 basis functions,   199 primitive gaussians,   125 cartesian basis functions
    24 alpha electrons       24 beta electrons
       nuclear repulsion energy       248.9286823471 Hartrees.
 IExCor=    0 DFT=F Ex=HF Corr=None ExCW=0 ScaHFX=  1.000000
 ScaDFX=  1.000000  1.000000  1.000000  1.000000 ScalE2=  1.000000  1.000000
 IRadAn=      0 IRanWt=     -1 IRanGd=            0 ICorTp=0 IEmpDi=  4
 NAtoms=   13 NActive=   13 NUniq=   13 SFac= 1.00D+00 NAtFMM=   60 NAOKFM=F Big=F
 Integral buffers will be    131072 words long.
 Raffenetti 1 integral format.
 Two-electron integral symmetry is turned on.
 ------------------------------------------------------------------------------
 Polarizable Continuum Model (PCM)
 =================================
 Model                : PCM (using non-symmetric T matrix).
 Atomic radii         : UFF (Universal Force Field).
 Polarization charges : Total charges.
 Charge compensation  : None.
 Solution method      : On-the-fly selection.
 Cavity type          : Scaled VdW (van der Waals Surface) (Alpha=1.100).
 Cavity algorithm     : GePol (No added spheres)
                        Default sphere list used, NSphG=   13.
                        Lebedev-Laikov grids with approx.  5.0 points / Ang**2.
                        Smoothing algorithm: Karplus/York (Gamma=1.0000).
                        Polarization charges: spherical gaussians, with
                                              point-specific exponents (IZeta= 3).
                        Self-potential: point-specific (ISelfS= 7).
                        Self-field    : sphere-specific E.n sum rule (ISelfD= 2).
 1st derivatives      : Analytical E(r).r(x)/FMM algorithm (CHGder, D1EAlg=3).
                        Cavity 1st derivative terms included.
 Solvent              : Water, Eps=  78.355300 Eps(inf)=   1.777849
 ------------------------------------------------------------------------------
 Spheres list:
 ISph  on   Nord     Re0    Alpha      Xe            Ye            Ze
    1   C      1    1.9255  1.100      1.017444      0.023841      0.023623
    2   C      2    1.9255  1.100      0.007555     -1.085183      0.009882
    3   C      3    1.9255  1.100     -1.324488     -0.553930      0.449694
    4   N      4    1.8300  1.100     -1.751266      0.504221     -0.461226
    5   H      5    1.4430  1.100     -2.645446      0.240361     -0.899084
    6   H      6    1.4430  1.100     -1.872116      1.381710      0.064425
    7   H      7    1.4430  1.100     -1.037320      0.637097     -1.191653
    8   H      8    1.4430  1.100     -2.044875     -1.345034      0.439892
    9   H      9    1.4430  1.100     -1.241514     -0.159361      1.440820
   10   H     10    1.4430  1.100     -0.075419     -1.479752     -0.981244
   11   H     11    1.4430  1.100      0.320331     -1.860678      0.677474
   12   O     12    1.7500  1.100      2.190723     -0.201874     -0.308143
   13   O     13    1.7500  1.100      0.640796      1.295342      0.405488
 ------------------------------------------------------------------------------
 GePol: Number of generator spheres                  =      13
 GePol: Total number of spheres                      =      13
 GePol: Number of exposed spheres                    =      13 (100.00%)
 GePol: Number of points                             =    1095
 GePol: Average weight of points                     =       0.13
 GePol: Minimum weight of points                     =   0.81D-08
 GePol: Maximum weight of points                     =    0.20577
 GePol: Number of points with low weight             =      63
 GePol: Fraction of low-weight points (<1% of avg)   =       5.75%
 GePol: Cavity surface area                          =    145.576 Ang**2
 GePol: Cavity volume                                =    135.028 Ang**3
 Leave Link  301 at Wed Apr 29 13:00:31 2026, MaxMem=    33554432 cpu:         0.0
 (Enter /opt/g09/g09/l302.exe)
 NPDir=0 NMtPBC=     1 NCelOv=     1 NCel=       1 NClECP=     1 NCelD=      1
         NCelK=      1 NCelE2=     1 NClLst=     1 CellRange=     0.0.
 One-electron integrals computed using PRISM.
   1 Symmetry operations used in ECPInt.
 ECPInt:  NShTT=    1653 NPrTT=    5877 LenC2=    1647 LenP2D=    4959.
 LDataN:  DoStor=T MaxTD1= 4 Len=   56
 NBasis=   119 RedAO= T EigKep=  1.58D-03  NBF=   119
 NBsUse=   119 1.00D-06 EigRej= -1.00D+00 NBFU=   119
 Leave Link  302 at Wed Apr 29 13:00:31 2026, MaxMem=    33554432 cpu:         0.0
 (Enter /opt/g09/g09/l303.exe)
 DipDrv:  MaxL=1.
 Leave Link  303 at Wed Apr 29 13:00:31 2026, MaxMem=    33554432 cpu:         0.0
 (Enter /opt/g09/g09/l401.exe)
 ExpMin= 1.22D-01 ExpMax= 2.27D+03 ExpMxC= 3.41D+02 IAcc=1 IRadAn=         1 AccDes= 0.00D+00
 Harris functional with IExCor=  205 and IRadAn=       1 diagonalized for initial guess.
 HarFok:  IExCor=  205 AccDes= 0.00D+00 IRadAn=         1 IDoV= 1 UseB2=F ITyADJ=14
 ICtDFT=  3500011 ScaDFX=  1.000000  1.000000  1.000000  1.000000
 FoFCou: FMM=F IPFlag=           0 FMFlag=      100000 FMFlg1=           0
         NFxFlg=           0 DoJE=T BraDBF=F KetDBF=T FulRan=T
         wScrn=  0.000000 ICntrl=     500 IOpCl=  0 I1Cent=   200000004 NGrid=           0
         NMat0=    1 NMatS0=      1 NMatT0=    0 NMatD0=    1 NMtDS0=    0 NMtDT0=    0
 Petite list used in FoFCou.
 Harris En= -321.993546773619    
 JPrj=0 DoOrth=F DoCkMO=F.
 Leave Link  401 at Wed Apr 29 13:00:31 2026, MaxMem=    33554432 cpu:         0.1
 (Enter /opt/g09/g09/l502.exe)
 Closed shell SCF:
 Using DIIS extrapolation, IDIIS=  1040.
 Integral symmetry usage will be decided dynamically.
 Keep R1 ints in memory in canonical form, NReq=29927399.
 IVT=       67127 IEndB=       67127 NGot=    33554432 MDV=     7993936
 LenX=     7993936 LenY=     7977870
 Requested convergence on RMS density matrix=1.00D-08 within 128 cycles.
 Requested convergence on MAX density matrix=1.00D-06.
 Requested convergence on             energy=1.00D-06.
 No special actions if energy rises.
 FoFCou: FMM=F IPFlag=           0 FMFlag=           0 FMFlg1=           0
         NFxFlg=           0 DoJE=F BraDBF=F KetDBF=F FulRan=T
         wScrn=  0.000000 ICntrl=     600 IOpCl=  0 I1Cent=           0 NGrid=           0
         NMat0=    1 NMatS0=   7140 NMatT0=    0 NMatD0=    1 NMtDS0=    0 NMtDT0=    0
 Symmetry not used in FoFCou.

 Cycle   1  Pass 1  IDiag  1:
 Inv3:  Mode=1 IEnd=     3597075.
 Iteration    1 A*A^-1 deviation from unit magnitude is 5.33D-15 for   1093.
 Iteration    1 A*A^-1 deviation from orthogonality  is 3.40D-15 for   1077    800.
 Iteration    1 A^-1*A deviation from unit magnitude is 5.44D-15 for   1093.
 Iteration    1 A^-1*A deviation from orthogonality  is 5.54D-14 for   1006    971.
 E= -321.349605810462    
 DIIS: error= 4.97D-02 at cycle   1 NSaved=   1.
 NSaved= 1 IEnMin= 1 EnMin= -321.349605810462     IErMin= 1 ErrMin= 4.97D-02
 ErrMax= 4.97D-02  0.00D+00 EMaxC= 1.00D-01 BMatC= 3.54D-01 BMatP= 3.54D-01
 IDIUse=3 WtCom= 5.03D-01 WtEn= 4.97D-01
 Coeff-Com:  0.100D+01
 Coeff-En:   0.100D+01
 Coeff:      0.100D+01
 Gap=     0.536 Goal=   None    Shift=    0.000
 GapD=    0.536 DampG=2.000 DampE=0.500 DampFc=1.0000 IDamp=-1.
 RMSDP=6.12D-03 MaxDP=1.58D-01              OVMax= 1.06D-01

 Cycle   2  Pass 1  IDiag  1:
 E= -321.544386987718     Delta-E=       -0.194781177256 Rises=F Damp=F
 DIIS: error= 2.16D-02 at cycle   2 NSaved=   2.
 NSaved= 2 IEnMin= 2 EnMin= -321.544386987718     IErMin= 2 ErrMin= 2.16D-02
 ErrMax= 2.16D-02  0.00D+00 EMaxC= 1.00D-01 BMatC= 6.28D-02 BMatP= 3.54D-01
 IDIUse=3 WtCom= 7.84D-01 WtEn= 2.16D-01
 Coeff-Com:  0.257D+00 0.743D+00
 Coeff-En:   0.000D+00 0.100D+01
 Coeff:      0.201D+00 0.799D+00
 Gap=     0.554 Goal=   None    Shift=    0.000
 RMSDP=2.93D-03 MaxDP=1.30D-01 DE=-1.95D-01 OVMax= 4.94D-02

 Cycle   3  Pass 1  IDiag  1:
 E= -321.587551027340     Delta-E=       -0.043164039622 Rises=F Damp=F
 DIIS: error= 7.37D-03 at cycle   3 NSaved=   3.
 NSaved= 3 IEnMin= 3 EnMin= -321.587551027340     IErMin= 3 ErrMin= 7.37D-03
 ErrMax= 7.37D-03  0.00D+00 EMaxC= 1.00D-01 BMatC= 5.97D-03 BMatP= 6.28D-02
 IDIUse=3 WtCom= 9.26D-01 WtEn= 7.37D-02
 Coeff-Com: -0.128D-01 0.205D+00 0.807D+00
 Coeff-En:   0.000D+00 0.000D+00 0.100D+01
 Coeff:     -0.119D-01 0.190D+00 0.822D+00
 Gap=     0.521 Goal=   None    Shift=    0.000
 RMSDP=5.70D-04 MaxDP=1.59D-02 DE=-4.32D-02 OVMax= 1.48D-02

 Cycle   4  Pass 1  IDiag  1:
 E= -321.591731449437     Delta-E=       -0.004180422097 Rises=F Damp=F
 DIIS: error= 1.22D-03 at cycle   4 NSaved=   4.
 NSaved= 4 IEnMin= 4 EnMin= -321.591731449437     IErMin= 4 ErrMin= 1.22D-03
 ErrMax= 1.22D-03  0.00D+00 EMaxC= 1.00D-01 BMatC= 2.75D-04 BMatP= 5.97D-03
 IDIUse=3 WtCom= 9.88D-01 WtEn= 1.22D-02
 Coeff-Com: -0.121D-01 0.209D-01 0.226D+00 0.765D+00
 Coeff-En:   0.000D+00 0.000D+00 0.000D+00 0.100D+01
 Coeff:     -0.120D-01 0.206D-01 0.224D+00 0.768D+00
 Gap=     0.523 Goal=   None    Shift=    0.000
 RMSDP=1.79D-04 MaxDP=4.16D-03 DE=-4.18D-03 OVMax= 4.32D-03

 Cycle   5  Pass 1  IDiag  1:
 E= -321.592021096447     Delta-E=       -0.000289647010 Rises=F Damp=F
 DIIS: error= 3.84D-04 at cycle   5 NSaved=   5.
 NSaved= 5 IEnMin= 5 EnMin= -321.592021096447     IErMin= 5 ErrMin= 3.84D-04
 ErrMax= 3.84D-04  0.00D+00 EMaxC= 1.00D-01 BMatC= 1.74D-05 BMatP= 2.75D-04
 IDIUse=3 WtCom= 9.96D-01 WtEn= 3.84D-03
 Coeff-Com:  0.176D-02-0.168D-01-0.895D-01-0.334D-01 0.114D+01
 Coeff-En:   0.000D+00 0.000D+00 0.000D+00 0.000D+00 0.100D+01
 Coeff:      0.176D-02-0.167D-01-0.892D-01-0.333D-01 0.114D+01
 Gap=     0.523 Goal=   None    Shift=    0.000
 RMSDP=7.22D-05 MaxDP=1.27D-03 DE=-2.90D-04 OVMax= 1.63D-03

 Cycle   6  Pass 1  IDiag  1:
 E= -321.592054048412     Delta-E=       -0.000032951965 Rises=F Damp=F
 DIIS: error= 1.48D-04 at cycle   6 NSaved=   6.
 NSaved= 6 IEnMin= 6 EnMin= -321.592054048412     IErMin= 6 ErrMin= 1.48D-04
 ErrMax= 1.48D-04  0.00D+00 EMaxC= 1.00D-01 BMatC= 2.01D-06 BMatP= 1.74D-05
 IDIUse=3 WtCom= 9.99D-01 WtEn= 1.48D-03
 Coeff-Com:  0.130D-02-0.541D-02-0.384D-01-0.616D-01 0.219D+00 0.885D+00
 Coeff-En:   0.000D+00 0.000D+00 0.000D+00 0.000D+00 0.000D+00 0.100D+01
 Coeff:      0.129D-02-0.540D-02-0.384D-01-0.615D-01 0.219D+00 0.885D+00
 Gap=     0.523 Goal=   None    Shift=    0.000
 RMSDP=2.10D-05 MaxDP=4.55D-04 DE=-3.30D-05 OVMax= 1.08D-03

 Cycle   7  Pass 1  IDiag  1:
 E= -321.592058124511     Delta-E=       -0.000004076099 Rises=F Damp=F
 DIIS: error= 5.23D-05 at cycle   7 NSaved=   7.
 NSaved= 7 IEnMin= 7 EnMin= -321.592058124511     IErMin= 7 ErrMin= 5.23D-05
 ErrMax= 5.23D-05  0.00D+00 EMaxC= 1.00D-01 BMatC= 4.74D-07 BMatP= 2.01D-06
 IDIUse=1 WtCom= 1.00D+00 WtEn= 0.00D+00
 Coeff-Com: -0.101D-03 0.216D-02 0.104D-01 0.179D-02-0.184D+00 0.164D+00
 Coeff-Com:  0.101D+01
 Coeff:     -0.101D-03 0.216D-02 0.104D-01 0.179D-02-0.184D+00 0.164D+00
 Coeff:      0.101D+01
 Gap=     0.523 Goal=   None    Shift=    0.000
 RMSDP=1.22D-05 MaxDP=2.41D-04 DE=-4.08D-06 OVMax= 4.36D-04

 Cycle   8  Pass 1  IDiag  1:
 E= -321.592059175584     Delta-E=       -0.000001051073 Rises=F Damp=F
 DIIS: error= 2.79D-05 at cycle   8 NSaved=   8.
 NSaved= 8 IEnMin= 8 EnMin= -321.592059175584     IErMin= 8 ErrMin= 2.79D-05
 ErrMax= 2.79D-05  0.00D+00 EMaxC= 1.00D-01 BMatC= 4.90D-08 BMatP= 4.74D-07
 IDIUse=1 WtCom= 1.00D+00 WtEn= 0.00D+00
 Coeff-Com: -0.211D-03 0.954D-03 0.633D-02 0.116D-01-0.396D-01-0.114D+00
 Coeff-Com: -0.979D-01 0.123D+01
 Coeff:     -0.211D-03 0.954D-03 0.633D-02 0.116D-01-0.396D-01-0.114D+00
 Coeff:     -0.979D-01 0.123D+01
 Gap=     0.523 Goal=   None    Shift=    0.000
 RMSDP=6.22D-06 MaxDP=1.38D-04 DE=-1.05D-06 OVMax= 3.35D-04

 Cycle   9  Pass 1  IDiag  1:
 E= -321.592059373466     Delta-E=       -0.000000197883 Rises=F Damp=F
 DIIS: error= 6.98D-06 at cycle   9 NSaved=   9.
 NSaved= 9 IEnMin= 9 EnMin= -321.592059373466     IErMin= 9 ErrMin= 6.98D-06
 ErrMax= 6.98D-06  0.00D+00 EMaxC= 1.00D-01 BMatC= 8.01D-09 BMatP= 4.90D-08
 IDIUse=1 WtCom= 1.00D+00 WtEn= 0.00D+00
 Coeff-Com:  0.631D-05-0.243D-03-0.128D-02 0.317D-03 0.206D-01-0.725D-02
 Coeff-Com: -0.162D+00 0.537D-01 0.110D+01
 Coeff:      0.631D-05-0.243D-03-0.128D-02 0.317D-03 0.206D-01-0.725D-02
 Coeff:     -0.162D+00 0.537D-01 0.110D+01
 Gap=     0.523 Goal=   None    Shift=    0.000
 RMSDP=2.19D-06 MaxDP=4.19D-05 DE=-1.98D-07 OVMax= 1.06D-04

 Cycle  10  Pass 1  IDiag  1:
 E= -321.592059396109     Delta-E=       -0.000000022642 Rises=F Damp=F
 DIIS: error= 2.78D-06 at cycle  10 NSaved=  10.
 NSaved=10 IEnMin=10 EnMin= -321.592059396109     IErMin=10 ErrMin= 2.78D-06
 ErrMax= 2.78D-06  0.00D+00 EMaxC= 1.00D-01 BMatC= 8.35D-10 BMatP= 8.01D-09
 IDIUse=1 WtCom= 1.00D+00 WtEn= 0.00D+00
 Coeff-Com:  0.289D-04-0.139D-03-0.907D-03-0.152D-02 0.486D-02 0.217D-01
 Coeff-Com: -0.837D-05-0.156D+00-0.199D-01 0.115D+01
 Coeff:      0.289D-04-0.139D-03-0.907D-03-0.152D-02 0.486D-02 0.217D-01
 Coeff:     -0.837D-05-0.156D+00-0.199D-01 0.115D+01
 Gap=     0.523 Goal=   None    Shift=    0.000
 RMSDP=8.35D-07 MaxDP=1.60D-05 DE=-2.26D-08 OVMax= 4.03D-05

 Cycle  11  Pass 1  IDiag  1:
 E= -321.592059398744     Delta-E=       -0.000000002635 Rises=F Damp=F
 DIIS: error= 6.74D-07 at cycle  11 NSaved=  11.
 NSaved=11 IEnMin=11 EnMin= -321.592059398744     IErMin=11 ErrMin= 6.74D-07
 ErrMax= 6.74D-07  0.00D+00 EMaxC= 1.00D-01 BMatC= 8.47D-11 BMatP= 8.35D-10
 IDIUse=1 WtCom= 1.00D+00 WtEn= 0.00D+00
 Coeff-Com: -0.177D-05 0.248D-04 0.171D-03 0.687D-04-0.231D-02 0.101D-02
 Coeff-Com:  0.991D-02 0.117D-01-0.995D-01-0.985D-01 0.118D+01
 Coeff:     -0.177D-05 0.248D-04 0.171D-03 0.687D-04-0.231D-02 0.101D-02
 Coeff:      0.991D-02 0.117D-01-0.995D-01-0.985D-01 0.118D+01
 Gap=     0.523 Goal=   None    Shift=    0.000
 RMSDP=2.61D-07 MaxDP=5.58D-06 DE=-2.64D-09 OVMax= 1.02D-05

 Cycle  12  Pass 1  IDiag  1:
 E= -321.592059398981     Delta-E=       -0.000000000236 Rises=F Damp=F
 DIIS: error= 2.02D-07 at cycle  12 NSaved=  12.
 NSaved=12 IEnMin=12 EnMin= -321.592059398981     IErMin=12 ErrMin= 2.02D-07
 ErrMax= 2.02D-07  0.00D+00 EMaxC= 1.00D-01 BMatC= 9.35D-12 BMatP= 8.47D-11
 IDIUse=1 WtCom= 1.00D+00 WtEn= 0.00D+00
 Coeff-Com: -0.354D-05 0.170D-04 0.125D-03 0.185D-03-0.786D-03-0.213D-02
 Coeff-Com: -0.718D-03 0.216D-01-0.378D-02-0.153D+00 0.686D-01 0.107D+01
 Coeff:     -0.354D-05 0.170D-04 0.125D-03 0.185D-03-0.786D-03-0.213D-02
 Coeff:     -0.718D-03 0.216D-01-0.378D-02-0.153D+00 0.686D-01 0.107D+01
 Gap=     0.523 Goal=   None    Shift=    0.000
 RMSDP=8.91D-08 MaxDP=2.00D-06 DE=-2.36D-10 OVMax= 2.89D-06

 Cycle  13  Pass 1  IDiag  1:
 E= -321.592059399004     Delta-E=       -0.000000000023 Rises=F Damp=F
 DIIS: error= 5.79D-08 at cycle  13 NSaved=  13.
 NSaved=13 IEnMin=13 EnMin= -321.592059399004     IErMin=13 ErrMin= 5.79D-08
 ErrMax= 5.79D-08  0.00D+00 EMaxC= 1.00D-01 BMatC= 6.73D-13 BMatP= 9.35D-12
 IDIUse=1 WtCom= 1.00D+00 WtEn= 0.00D+00
 Coeff-Com:  0.555D-06-0.401D-05-0.260D-04-0.304D-04 0.257D-03 0.301D-03
 Coeff-Com: -0.971D-03-0.323D-02 0.858D-02 0.273D-01-0.120D+00-0.969D-01
 Coeff-Com:  0.118D+01
 Coeff:      0.555D-06-0.401D-05-0.260D-04-0.304D-04 0.257D-03 0.301D-03
 Coeff:     -0.971D-03-0.323D-02 0.858D-02 0.273D-01-0.120D+00-0.969D-01
 Coeff:      0.118D+01
 Gap=     0.523 Goal=   None    Shift=    0.000
 RMSDP=2.54D-08 MaxDP=5.78D-07 DE=-2.31D-11 OVMax= 7.10D-07

 Cycle  14  Pass 1  IDiag  1:
 E= -321.592059399005     Delta-E=       -0.000000000001 Rises=F Damp=F
 DIIS: error= 1.32D-08 at cycle  14 NSaved=  14.
 NSaved=14 IEnMin=14 EnMin= -321.592059399005     IErMin=14 ErrMin= 1.32D-08
 ErrMax= 1.32D-08  0.00D+00 EMaxC= 1.00D-01 BMatC= 4.33D-14 BMatP= 6.73D-13
 IDIUse=1 WtCom= 1.00D+00 WtEn= 0.00D+00
 Coeff-Com:  0.100D-06-0.304D-06-0.223D-05-0.718D-05-0.728D-05 0.106D-03
 Coeff-Com:  0.257D-03-0.789D-03-0.204D-02 0.610D-02 0.203D-01-0.567D-01
 Coeff-Com: -0.274D+00 0.131D+01
 Coeff:      0.100D-06-0.304D-06-0.223D-05-0.718D-05-0.728D-05 0.106D-03
 Coeff:      0.257D-03-0.789D-03-0.204D-02 0.610D-02 0.203D-01-0.567D-01
 Coeff:     -0.274D+00 0.131D+01
 Gap=     0.523 Goal=   None    Shift=    0.000
 RMSDP=7.14D-09 MaxDP=2.39D-07 DE=-1.02D-12 OVMax= 2.10D-07

 Error on total polarization charges =  0.00329
 SCF Done:  E(RHF) =  -321.592059399     A.U. after   14 cycles
            NFock= 14  Conv=0.71D-08     -V/T= 2.0042
 KE= 3.202494613714D+02 PE=-1.254077957241D+03 EE= 3.633077541233D+02
 Leave Link  502 at Wed Apr 29 13:00:35 2026, MaxMem=    33554432 cpu:         3.3
 (Enter /opt/g09/g09/l601.exe)
 Copying SCF densities to generalized density rwf, IOpCl= 0 IROHF=0.

 **********************************************************************

            Population analysis using the SCF density.

 **********************************************************************

 Orbital symmetries:
       Occupied  (A) (A) (A) (A) (A) (A) (A) (A) (A) (A) (A) (A)
                 (A) (A) (A) (A) (A) (A) (A) (A) (A) (A) (A) (A)
       Virtual   (A) (A) (A) (A) (A) (A) (A) (A) (A) (A) (A) (A)
                 (A) (A) (A) (A) (A) (A) (A) (A) (A) (A) (A) (A)
                 (A) (A) (A) (A) (A) (A) (A) (A) (A) (A) (A) (A)
                 (A) (A) (A) (A) (A) (A) (A) (A) (A) (A) (A) (A)
                 (A) (A) (A) (A) (A) (A) (A) (A) (A) (A) (A) (A)
                 (A) (A) (A) (A) (A) (A) (A) (A) (A) (A) (A) (A)
                 (A) (A) (A) (A) (A) (A) (A) (A) (A) (A) (A) (A)
                 (A) (A) (A) (A) (A) (A) (A) (A) (A) (A) (A)
 The electronic state is 1-A.
 Alpha  occ. eigenvalues --  -20.47951 -20.45822 -15.69533 -11.33127 -11.28536
 Alpha  occ. eigenvalues --  -11.23548  -1.33120  -1.30712  -1.18940  -1.05294
 Alpha  occ. eigenvalues --   -0.89848  -0.78166  -0.77304  -0.71402  -0.67256
 Alpha  occ. eigenvalues --   -0.62727  -0.59524  -0.58555  -0.54981  -0.52574
 Alpha  occ. eigenvalues --   -0.49832  -0.39840  -0.38204  -0.36981
 Alpha virt. eigenvalues --    0.15353   0.19928   0.19995   0.20670   0.21110
 Alpha virt. eigenvalues --    0.26767   0.28699   0.30598   0.36169   0.38127
 Alpha virt. eigenvalues --    0.41450   0.46683   0.52690   0.60370   0.61729
 Alpha virt. eigenvalues --    0.70255   0.71685   0.74073   0.77655   0.79014
 Alpha virt. eigenvalues --    0.82361   0.84262   0.86206   0.86828   0.87938
 Alpha virt. eigenvalues --    0.89445   0.90927   0.91942   0.92785   0.96182
 Alpha virt. eigenvalues --    0.99891   1.02397   1.06849   1.07507   1.18437
 Alpha virt. eigenvalues --    1.20827   1.27839   1.35726   1.36870   1.42672
 Alpha virt. eigenvalues --    1.43950   1.46125   1.56765   1.61706   1.63615
 Alpha virt. eigenvalues --    1.66969   1.74038   1.79201   1.82362   1.86068
 Alpha virt. eigenvalues --    1.87548   1.91522   1.97060   2.03731   2.05723
 Alpha virt. eigenvalues --    2.07326   2.07715   2.14030   2.15933   2.19378
 Alpha virt. eigenvalues --    2.23110   2.26764   2.27332   2.28994   2.35510
 Alpha virt. eigenvalues --    2.37589   2.43940   2.46906   2.56613   2.60145
 Alpha virt. eigenvalues --    2.66373   2.67855   2.74293   2.83617   2.84818
 Alpha virt. eigenvalues --    2.95084   3.06020   3.10020   3.11904   3.12681
 Alpha virt. eigenvalues --    3.13742   3.17234   3.21025   3.24271   3.34323
 Alpha virt. eigenvalues --    3.38461   3.41865   3.46484   3.50420   3.59365
 Alpha virt. eigenvalues --    3.61758   3.65791   3.74800   4.00274   4.06510
     Molecular Orbital Coefficients:
                           1         2         3         4         5
                           O         O         O         O         O
     Eigenvalues --   -20.47951 -20.45822 -15.69533 -11.33127 -11.28536
   1 1   C  1S         -0.00013  -0.00005  -0.00002   0.99102   0.00005
   2        2S         -0.00186  -0.00080   0.00010   0.03552  -0.00061
   3        3S         -0.00760  -0.00686   0.00263  -0.01027  -0.00122
   4        4PX         0.00040   0.00018  -0.00008   0.00032   0.00000
   5        4PY         0.00003  -0.00035   0.00011  -0.00005  -0.00017
   6        4PZ        -0.00009  -0.00016   0.00000  -0.00023  -0.00003
   7        5PX        -0.01195   0.00445  -0.00094   0.00871  -0.00098
   8        5PY         0.00364  -0.01076  -0.00078   0.00408   0.00079
   9        5PZ         0.00373  -0.00334  -0.00034  -0.00088   0.00031
  10        6D 0       -0.00035  -0.00003  -0.00006  -0.00148  -0.00007
  11        6D+1       -0.00047  -0.00001  -0.00006  -0.00082  -0.00003
  12        6D-1        0.00010   0.00019   0.00004   0.00064  -0.00003
  13        6D+2        0.00077  -0.00036   0.00008   0.00042   0.00017
  14        6D-2       -0.00046  -0.00035  -0.00005  -0.00025   0.00006
  15 2   C  1S         -0.00003  -0.00003  -0.00005   0.00334   0.00650
  16        2S          0.00037  -0.00040   0.00083  -0.00035  -0.00091
  17        3S         -0.00153   0.00533  -0.00101   0.00300   0.01039
  18        4PX         0.00008   0.00010  -0.00023  -0.00071   0.00073
  19        4PY         0.00005   0.00020   0.00015  -0.00060  -0.00015
  20        4PZ         0.00000   0.00002  -0.00001  -0.00003  -0.00018
  21        5PX         0.00132  -0.00641  -0.00090   0.00226  -0.00274
  22        5PY        -0.00083   0.00291  -0.00118   0.00073   0.00168
  23        5PZ        -0.00059   0.00199   0.00104   0.00027   0.00100
  24        6D 0       -0.00009   0.00002  -0.00002   0.00043   0.00021
  25        6D+1       -0.00009   0.00010  -0.00007   0.00001   0.00029
  26        6D-1       -0.00007   0.00007   0.00011  -0.00006  -0.00014
  27        6D+2        0.00036  -0.00037   0.00005  -0.00002  -0.00042
  28        6D-2        0.00018  -0.00007   0.00002  -0.00071   0.00035
  29 3   C  1S         -0.00004  -0.00008  -0.00019  -0.00002   0.99050
  30        2S          0.00111   0.00111   0.00078  -0.00097   0.03882
  31        3S         -0.00295  -0.01011  -0.01139   0.00410  -0.03327
  32        4PX         0.00024   0.00005   0.00005  -0.00006  -0.00030
  33        4PY         0.00005   0.00016   0.00008  -0.00018   0.00062
  34        4PZ         0.00002  -0.00006  -0.00015  -0.00006  -0.00036
  35        5PX        -0.00195  -0.00297   0.00086   0.00257  -0.00397
  36        5PY        -0.00280   0.00098  -0.00238   0.00170   0.00017
  37        5PZ         0.00010   0.00163   0.00232  -0.00072   0.00046
  38        6D 0        0.00003  -0.00009   0.00010  -0.00007   0.00001
  39        6D+1        0.00000  -0.00006   0.00024  -0.00005   0.00004
  40        6D-1        0.00000  -0.00006  -0.00067  -0.00002   0.00014
  41        6D+2       -0.00007  -0.00007  -0.00029   0.00020  -0.00013
  42        6D-2        0.00000   0.00025  -0.00033   0.00014   0.00040
  43 4   N  1S          0.00000   0.00004   0.99014  -0.00002  -0.00001
  44        2S         -0.00005   0.00021  -0.03781  -0.00018  -0.00017
  45        3S          0.00130   0.00140   0.02255  -0.00117   0.00184
  46        4PX        -0.00002  -0.00017  -0.00011   0.00012   0.00009
  47        4PY         0.00000  -0.00005   0.00018  -0.00004  -0.00035
  48        4PZ         0.00004  -0.00005  -0.00024   0.00007   0.00026
  49        5PX         0.00013  -0.00058   0.00187   0.00015   0.00026
  50        5PY        -0.00051  -0.00092  -0.00337   0.00059   0.00044
  51        5PZ         0.00089  -0.00003   0.00260   0.00039  -0.00099
  52        6D 0       -0.00001  -0.00002   0.00008   0.00004  -0.00008
  53        6D+1        0.00007   0.00018   0.00018  -0.00003  -0.00020
  54        6D-1        0.00000  -0.00002  -0.00062   0.00000   0.00062
  55        6D+2        0.00000   0.00010  -0.00030  -0.00011   0.00038
  56        6D-2       -0.00005   0.00002  -0.00029   0.00000   0.00028
  57 5   H  1S         -0.00003  -0.00048   0.00145   0.00034   0.00023
  58        2S         -0.00006  -0.00016  -0.00175   0.00005   0.00060
  59        3PX         0.00001  -0.00015   0.00190   0.00005   0.00013
  60        3PY         0.00005  -0.00005   0.00089   0.00001  -0.00043
  61        3PZ        -0.00012  -0.00008   0.00082   0.00010   0.00036
  62 6   H  1S         -0.00002   0.00051   0.00132  -0.00024   0.00063
  63        2S          0.00022  -0.00041  -0.00172  -0.00085   0.00047
  64        3PX         0.00007   0.00015   0.00009  -0.00020   0.00022
  65        3PY        -0.00006   0.00000  -0.00169   0.00020  -0.00051
  66        3PZ         0.00003   0.00001  -0.00139  -0.00005   0.00044
  67 7   H  1S         -0.00010   0.00044   0.00115   0.00008   0.00033
  68        2S          0.00044   0.00035  -0.00215   0.00145  -0.00025
  69        3PX        -0.00028   0.00023  -0.00163   0.00035   0.00023
  70        3PY        -0.00006   0.00006  -0.00006  -0.00011  -0.00044
  71        3PZ        -0.00005   0.00019   0.00133   0.00026   0.00032
  72 8   H  1S         -0.00036   0.00022   0.00064   0.00029  -0.00174
  73        2S         -0.00115   0.00056   0.00141   0.00058   0.00557
  74        3PX         0.00001  -0.00010   0.00005  -0.00006  -0.00060
  75        3PY        -0.00007  -0.00013   0.00000   0.00000  -0.00092
  76        3PZ        -0.00004  -0.00009   0.00000   0.00004  -0.00014
  77 9   H  1S          0.00055   0.00049   0.00059  -0.00051  -0.00100
  78        2S          0.00084   0.00076   0.00137   0.00015   0.00663
  79        3PX         0.00006   0.00020   0.00004   0.00004   0.00036
  80        3PY         0.00015   0.00011  -0.00004  -0.00015   0.00047
  81        3PZ        -0.00007  -0.00009  -0.00001  -0.00008   0.00078
  82 10  H  1S          0.00015  -0.00009   0.00029   0.00028  -0.00008
  83        2S          0.00061   0.00028   0.00079   0.00045   0.00026
  84        3PX         0.00010   0.00021  -0.00013   0.00022  -0.00033
  85        3PY         0.00023  -0.00027   0.00017   0.00032   0.00022
  86        3PZ         0.00008   0.00003  -0.00004   0.00004   0.00019
  87 11  H  1S          0.00018  -0.00009  -0.00010  -0.00004  -0.00002
  88        2S          0.00061   0.00032  -0.00089   0.00020  -0.00020
  89        3PX         0.00010   0.00019   0.00010   0.00018  -0.00027
  90        3PY         0.00026  -0.00023  -0.00003   0.00026   0.00016
  91        3PZ        -0.00002  -0.00022   0.00001   0.00001   0.00007
  92 12  O  1S          0.99021   0.00241   0.00000   0.00039  -0.00003
  93        2S         -0.03573   0.00066   0.00008   0.00115  -0.00030
  94        3S          0.02665  -0.00281  -0.00039  -0.00856   0.00134
  95        4PX         0.00236  -0.00021   0.00001   0.00014   0.00002
  96        4PY        -0.00038  -0.00010  -0.00001   0.00014  -0.00002
  97        4PZ        -0.00065   0.00004  -0.00001   0.00003  -0.00002
  98        5PX        -0.00604   0.00107   0.00021   0.00438  -0.00031
  99        5PY         0.00089   0.00186   0.00008  -0.00212  -0.00001
 100        5PZ         0.00164   0.00011   0.00007  -0.00168   0.00013
 101        6D 0        0.00015   0.00007   0.00001   0.00015   0.00000
 102        6D+1        0.00009  -0.00001   0.00000   0.00014   0.00001
 103        6D-1       -0.00007   0.00005   0.00001  -0.00008  -0.00001
 104        6D+2       -0.00004  -0.00007  -0.00004  -0.00009   0.00000
 105        6D-2        0.00002  -0.00028   0.00001   0.00012   0.00003
 106 13  O  1S         -0.00225   0.99037   0.00004   0.00012  -0.00007
 107        2S          0.00081  -0.03486   0.00031   0.00067  -0.00066
 108        3S         -0.00296   0.02435  -0.00050  -0.00288   0.00106
 109        4PX        -0.00002  -0.00032  -0.00016   0.00003   0.00020
 110        4PY        -0.00025   0.00198  -0.00005   0.00017   0.00014
 111        4PZ        -0.00007   0.00058  -0.00010  -0.00001   0.00001
 112        5PX         0.00126   0.00113   0.00040  -0.00207  -0.00074
 113        5PY         0.00145  -0.00604   0.00028   0.00247  -0.00069
 114        5PZ         0.00008  -0.00177   0.00033   0.00115  -0.00011
 115        6D 0        0.00005  -0.00006   0.00002   0.00041  -0.00013
 116        6D+1       -0.00008   0.00001  -0.00006   0.00019  -0.00002
 117        6D-1        0.00001   0.00011  -0.00005  -0.00042   0.00004
 118        6D+2        0.00013  -0.00020   0.00000   0.00048   0.00001
 119        6D-2       -0.00023  -0.00009  -0.00001   0.00049   0.00008
                           6         7         8         9        10
                           O         O         O         O         O
     Eigenvalues --   -11.23548  -1.33120  -1.30712  -1.18940  -1.05294
   1 1   C  1S         -0.00310  -0.15278   0.04900  -0.04093  -0.03509
   2        2S         -0.00139   0.30001  -0.09507   0.08063   0.07411
   3        3S          0.01186   0.04168  -0.02500   0.02906   0.00619
   4        4PX         0.00040   0.10988  -0.07029  -0.14368  -0.08818
   5        4PY         0.00063   0.00272   0.00463   0.14417  -0.09659
   6        4PZ        -0.00003  -0.02711   0.01582   0.06684  -0.00042
   7        5PX        -0.00488   0.00398   0.00585  -0.02763  -0.01228
   8        5PY        -0.00345  -0.01049   0.00197   0.01415  -0.02345
   9        5PZ         0.00039  -0.00409  -0.00064   0.00879  -0.00308
  10        6D 0        0.00048  -0.01515   0.00473  -0.00437  -0.00345
  11        6D+1        0.00004  -0.01249   0.00555   0.00337   0.00162
  12        6D-1       -0.00005   0.00660  -0.00204   0.00892  -0.00192
  13        6D+2        0.00014   0.01286  -0.00640  -0.02600   0.00030
  14        6D-2       -0.00067  -0.01083   0.00507  -0.00464   0.01304
  15 2   C  1S          0.99032  -0.04134  -0.01805  -0.01620  -0.19260
  16        2S          0.04048   0.07812   0.03110   0.03271   0.37053
  17        3S         -0.04458  -0.00146   0.03282  -0.01050   0.14307
  18        4PX        -0.00015   0.01264  -0.03003  -0.00240  -0.04178
  19        4PY        -0.00018   0.02716   0.00926   0.01920   0.03726
  20        4PZ        -0.00012   0.00034   0.00186   0.00597   0.01977
  21        5PX         0.00042  -0.00439  -0.00873   0.00066  -0.02696
  22        5PY        -0.00479   0.00584   0.01018  -0.00293   0.02985
  23        5PZ        -0.00051   0.00136   0.00330  -0.00031   0.00829
  24        6D 0        0.00035  -0.00382  -0.00133  -0.00121  -0.00559
  25        6D+1        0.00021  -0.00064  -0.00115   0.00001  -0.00435
  26        6D-1       -0.00013   0.00012   0.00040   0.00074   0.00166
  27        6D+2       -0.00026   0.00059   0.00171  -0.00196   0.00512
  28        6D-2       -0.00019   0.00360  -0.00420   0.00118  -0.00124
  29 3   C  1S         -0.00627  -0.04090  -0.09220  -0.00108  -0.14592
  30        2S         -0.00097   0.07782   0.17700   0.00146   0.28937
  31        3S          0.00926   0.00718   0.00723   0.00506   0.03303
  32        4PX        -0.00055   0.00308  -0.02051   0.01928   0.08685
  33        4PY         0.00031   0.02153   0.06238  -0.00759  -0.05107
  34        4PZ         0.00016  -0.02304  -0.05941   0.00803  -0.00957
  35        5PX         0.00319   0.00337  -0.00373   0.00825   0.01460
  36        5PY        -0.00197   0.00401   0.01108  -0.00174  -0.01663
  37        5PZ        -0.00026  -0.00493  -0.01016  -0.00082  -0.00014
  38        6D 0        0.00029  -0.00027   0.00121  -0.00109  -0.00345
  39        6D+1        0.00027   0.00052   0.00417  -0.00168  -0.00699
  40        6D-1       -0.00015  -0.00465  -0.01322   0.00199   0.00380
  41        6D+2       -0.00039  -0.00059  -0.00543   0.00201   0.00795
  42        6D-2        0.00049  -0.00287  -0.00714   0.00137  -0.00511
  43 4   N  1S         -0.00003   0.08400   0.23752  -0.03655  -0.07594
  44        2S         -0.00063   0.16862   0.47908  -0.07562  -0.16077
  45        3S          0.00217   0.06294   0.18445  -0.03241  -0.05298
  46        4PX         0.00007  -0.00824  -0.00903  -0.01234  -0.05153
  47        4PY        -0.00013   0.00962   0.02272  -0.00149   0.08259
  48        4PZ         0.00002  -0.00723  -0.01614  -0.00309  -0.05414
  49        5PX         0.00068   0.00406   0.00500   0.00758   0.02203
  50        5PY        -0.00111  -0.00911  -0.02327   0.00204  -0.03698
  51        5PZ         0.00003   0.00711   0.01558   0.00213   0.02648
  52        6D 0       -0.00005   0.00008   0.00042  -0.00011  -0.00019
  53        6D+1        0.00006   0.00068   0.00141   0.00007   0.00217
  54        6D-1       -0.00005  -0.00184  -0.00438   0.00012  -0.00588
  55        6D+2        0.00004  -0.00073  -0.00226   0.00052  -0.00239
  56        6D-2       -0.00007  -0.00116  -0.00253  -0.00002  -0.00397
  57 5   H  1S         -0.00029   0.04545   0.13564  -0.02853  -0.08271
  58        2S         -0.00021  -0.00016  -0.00002  -0.00005  -0.00335
  59        3PX        -0.00019   0.00705   0.02079  -0.00403  -0.01004
  60        3PY         0.00017   0.00240   0.00701  -0.00131  -0.00549
  61        3PZ         0.00002   0.00327   0.00967  -0.00193  -0.00420
  62 6   H  1S          0.00004   0.04647   0.13449  -0.02186  -0.08361
  63        2S         -0.00007   0.00099   0.00081   0.00369  -0.00250
  64        3PX        -0.00015   0.00089   0.00194   0.00056  -0.00003
  65        3PY         0.00003  -0.00686  -0.01971   0.00304   0.00907
  66        3PZ        -0.00007  -0.00457  -0.01303   0.00210   0.00828
  67 7   H  1S         -0.00002   0.05078   0.13723  -0.01675  -0.06071
  68        2S          0.00014   0.00230   0.00160   0.00200  -0.00898
  69        3PX         0.00027  -0.00561  -0.01725   0.00337   0.00836
  70        3PY        -0.00034  -0.00124  -0.00289   0.00048  -0.00141
  71        3PZ         0.00013   0.00657   0.01663  -0.00143  -0.00527
  72 8   H  1S         -0.00003   0.01511   0.03700  -0.00235   0.09146
  73        2S         -0.00064   0.00290   0.00562   0.00094   0.01210
  74        3PX         0.00022   0.00190   0.00421  -0.00012   0.01018
  75        3PY        -0.00008   0.00217   0.00531  -0.00036   0.00880
  76        3PZ        -0.00016  -0.00003  -0.00015   0.00014   0.00017
  77 9   H  1S          0.00012   0.01688   0.03588   0.00538   0.09122
  78        2S         -0.00005   0.00251   0.00473   0.00280   0.01055
  79        3PX         0.00040  -0.00016  -0.00106   0.00060  -0.00043
  80        3PY        -0.00012  -0.00103  -0.00208  -0.00006  -0.00573
  81        3PZ        -0.00023  -0.00297  -0.00617  -0.00065  -0.01132
  82 10  H  1S         -0.00106   0.01916   0.00895   0.00409   0.11664
  83        2S          0.00738   0.00391  -0.00199  -0.00039   0.00775
  84        3PX        -0.00021   0.00102  -0.00037  -0.00020   0.00102
  85        3PY        -0.00009   0.00173   0.00051   0.00049   0.00585
  86        3PZ        -0.00119   0.00317   0.00140   0.00065   0.01592
  87 11  H  1S         -0.00142   0.01707   0.00333   0.00475   0.11875
  88        2S          0.00667   0.00591   0.00011   0.00009   0.01166
  89        3PX         0.00038  -0.00033  -0.00101  -0.00043  -0.00530
  90        3PY        -0.00072   0.00284   0.00051   0.00084   0.01223
  91        3PZ         0.00098  -0.00223  -0.00066  -0.00027  -0.01099
  92 12  O  1S         -0.00003   0.20775  -0.09528  -0.12750  -0.03299
  93        2S         -0.00036   0.40593  -0.18591  -0.25087  -0.06709
  94        3S          0.00112   0.24308  -0.11872  -0.16952  -0.04820
  95        4PX         0.00007  -0.10800   0.04655   0.04185  -0.00372
  96        4PY         0.00002   0.02198  -0.00914   0.00994  -0.02225
  97        4PZ         0.00000   0.03053  -0.01340  -0.00773  -0.00410
  98        5PX        -0.00054  -0.02446   0.01146   0.01032  -0.00491
  99        5PY         0.00018   0.00443  -0.00200   0.00602  -0.00776
 100        5PZ         0.00013   0.00678  -0.00361  -0.00066  -0.00013
 101        6D 0       -0.00011  -0.00471   0.00199   0.00179  -0.00020
 102        6D+1       -0.00004  -0.00548   0.00243   0.00151   0.00025
 103        6D-1        0.00004   0.00088  -0.00040   0.00035  -0.00071
 104        6D+2        0.00000   0.00980  -0.00415  -0.00388   0.00084
 105        6D-2        0.00003  -0.00388   0.00164  -0.00100   0.00232
 106 13  O  1S         -0.00001   0.09614  -0.01431   0.24531  -0.05529
 107        2S         -0.00012   0.18625  -0.02941   0.48066  -0.10987
 108        3S         -0.00038   0.12809  -0.01103   0.35374  -0.08628
 109        4PX        -0.00002   0.01724  -0.01323   0.00970  -0.01630
 110        4PY         0.00011  -0.04622   0.00844  -0.07558  -0.00452
 111        4PZ         0.00001  -0.01610   0.00268  -0.02077   0.00490
 112        5PX         0.00031   0.00399  -0.00627   0.00134  -0.00264
 113        5PY        -0.00025  -0.01789   0.00032  -0.03123  -0.00297
 114        5PZ        -0.00008  -0.00643  -0.00032  -0.00940   0.00259
 115        6D 0       -0.00009  -0.00238   0.00038  -0.00362   0.00002
 116        6D+1       -0.00004  -0.00069   0.00056  -0.00040   0.00026
 117        6D-1        0.00004   0.00301  -0.00051   0.00412  -0.00053
 118        6D+2       -0.00002  -0.00410   0.00087  -0.00679  -0.00049
 119        6D-2        0.00002  -0.00291   0.00140  -0.00248   0.00153
                          11        12        13        14        15
                           O         O         O         O         O
     Eigenvalues --    -0.89848  -0.78166  -0.77304  -0.71402  -0.67256
   1 1   C  1S          0.06360   0.01917  -0.02695  -0.14328  -0.06081
   2        2S         -0.13764  -0.04234   0.06000   0.32276   0.13737
   3        3S         -0.04526  -0.01330   0.03101   0.06966   0.01976
   4        4PX         0.09801   0.03104  -0.00709  -0.07705   0.00164
   5        4PY         0.10339   0.04333  -0.03697  -0.07535   0.00017
   6        4PZ         0.00621  -0.00440   0.02015  -0.00997   0.05621
   7        5PX         0.03557   0.01742  -0.01746  -0.07562  -0.01903
   8        5PY         0.03125   0.01277  -0.02156  -0.03006  -0.00666
   9        5PZ         0.00110  -0.00328   0.01104   0.00439   0.02472
  10        6D 0        0.00429   0.00126  -0.00164  -0.00710  -0.00378
  11        6D+1       -0.00295   0.00122  -0.00056  -0.00216  -0.00358
  12        6D-1       -0.00024   0.00131   0.00119   0.00385  -0.00303
  13        6D+2        0.00551  -0.00183  -0.00582   0.00072   0.00275
  14        6D-2       -0.01007  -0.00107   0.00329   0.00183  -0.00161
  15 2   C  1S          0.12237  -0.00519  -0.03798   0.04765   0.03496
  16        2S         -0.24291   0.00910   0.08063  -0.09050  -0.06990
  17        3S         -0.05991  -0.00688   0.01244  -0.01868  -0.02473
  18        4PX        -0.11769  -0.04933   0.08716   0.14101   0.01934
  19        4PY        -0.00670  -0.04926  -0.05906   0.21489   0.08152
  20        4PZ         0.03880  -0.04292   0.03340  -0.03271   0.21158
  21        5PX        -0.03177  -0.00746   0.02716   0.03731   0.00346
  22        5PY        -0.01045  -0.01203  -0.04056   0.09173   0.03795
  23        5PZ         0.02428  -0.01238   0.02827  -0.00997   0.09942
  24        6D 0       -0.00073   0.00161   0.00168  -0.00949  -0.00757
  25        6D+1       -0.00553   0.00167   0.00146   0.00122  -0.00593
  26        6D-1        0.00294  -0.00112  -0.00159   0.00228  -0.00206
  27        6D+2        0.00671   0.00337  -0.00173  -0.00444   0.00097
  28        6D-2       -0.00970  -0.00134   0.00593   0.01323   0.00214
  29 3   C  1S         -0.16474   0.00176   0.01866   0.00541  -0.03635
  30        2S          0.33517  -0.00642  -0.04261  -0.00210   0.07446
  31        3S          0.06473   0.01241   0.00759  -0.10630   0.07301
  32        4PX        -0.10130  -0.06050  -0.08036  -0.06369   0.06469
  33        4PY         0.02304  -0.12666  -0.04614   0.17334  -0.10910
  34        4PZ         0.03988  -0.11641   0.08468  -0.06336   0.24532
  35        5PX        -0.02993  -0.02143  -0.03903  -0.04049   0.00386
  36        5PY         0.00162  -0.05673  -0.00934   0.04325  -0.02085
  37        5PZ         0.01930  -0.05558   0.02109   0.00124   0.09069
  38        6D 0        0.00102   0.00432  -0.00852   0.00526   0.00203
  39        6D+1        0.00692   0.00436   0.00872   0.00791  -0.00117
  40        6D-1       -0.00231  -0.00274   0.00989  -0.01415   0.01681
  41        6D+2       -0.00554   0.00969   0.00413  -0.00209   0.01023
  42        6D-2        0.00059   0.00225  -0.00494   0.00003   0.01220
  43 4   N  1S         -0.03777  -0.00256   0.00231   0.00523  -0.01406
  44        2S         -0.08239  -0.00779   0.00356   0.01201  -0.03482
  45        3S         -0.00490  -0.00257  -0.01315   0.06143  -0.05275
  46        4PX         0.00625   0.13936   0.42682   0.01602   0.02078
  47        4PY         0.14338   0.29912  -0.07436   0.22746  -0.13071
  48        4PZ        -0.17069   0.28256  -0.12811  -0.10110   0.29686
  49        5PX         0.00387  -0.06341  -0.21291   0.00240  -0.02071
  50        5PY        -0.07748  -0.14589   0.04494  -0.13462   0.08817
  51        5PZ         0.09079  -0.13725   0.06158   0.06686  -0.17169
  52        6D 0        0.00187  -0.00492  -0.00344   0.00054   0.00288
  53        6D+1        0.00487   0.00276   0.01072   0.00573  -0.00417
  54        6D-1       -0.00962  -0.00546   0.00797  -0.00796   0.00412
  55        6D+2       -0.00644   0.00822  -0.00180  -0.00013   0.00919
  56        6D-2       -0.00214   0.00617   0.00566  -0.00156   0.00606
  57 5   H  1S         -0.05269   0.23508   0.22681   0.02562   0.08095
  58        2S         -0.00759   0.02727   0.02906   0.00342   0.02145
  59        3PX        -0.00672   0.02519   0.01493   0.00200   0.00974
  60        3PY        -0.00613  -0.00181   0.00935  -0.00499   0.00517
  61        3PZ         0.00129   0.00652   0.01845   0.00346  -0.00459
  62 6   H  1S         -0.05558  -0.28064   0.13349  -0.10964  -0.04333
  63        2S         -0.00686  -0.02810   0.01539  -0.02640  -0.01278
  64        3PX        -0.00058  -0.00793  -0.01114  -0.00307  -0.00022
  65        3PY         0.00334   0.02663  -0.01480   0.00664   0.00676
  66        3PZ         0.00859   0.01113  -0.00545   0.01011  -0.00454
  67 7   H  1S         -0.13395   0.04500  -0.27844  -0.08234   0.15961
  68        2S         -0.00834   0.00630  -0.02657  -0.01987   0.02668
  69        3PX         0.01227  -0.00888   0.01410   0.00732  -0.01606
  70        3PY         0.00148  -0.01049   0.00881  -0.00454   0.00018
  71        3PZ        -0.01027  -0.00409  -0.02369  -0.00614   0.00581
  72 8   H  1S          0.16592   0.08910   0.04334  -0.06968   0.06982
  73        2S          0.02779   0.00788   0.00387  -0.00345   0.01221
  74        3PX         0.01085   0.00396   0.00144  -0.00531   0.00463
  75        3PY         0.01450   0.00487   0.00260  -0.00256   0.00369
  76        3PZ         0.00126  -0.00232   0.00048  -0.00091   0.00396
  77 9   H  1S          0.15626  -0.10726   0.02198  -0.00487   0.19075
  78        2S          0.02925  -0.00920   0.00280   0.00153   0.02738
  79        3PX        -0.00339   0.00030  -0.00085  -0.00014  -0.00074
  80        3PY        -0.00704   0.00096  -0.00116   0.00276  -0.00768
  81        3PZ        -0.01586   0.00781  -0.00109   0.00020  -0.01188
  82 10  H  1S         -0.11426   0.05148   0.02345  -0.09453  -0.21679
  83        2S         -0.01471   0.01361   0.00924  -0.02191  -0.04212
  84        3PX        -0.00338  -0.00126   0.00259   0.00216  -0.00005
  85        3PY        -0.00481   0.00145  -0.00019   0.00071  -0.00644
  86        3PZ        -0.01194   0.00378   0.00342  -0.00921  -0.01365
  87 11  H  1S         -0.10449   0.00151   0.09652  -0.14933   0.02354
  88        2S         -0.02538   0.00149   0.00724  -0.02910  -0.00214
  89        3PX         0.00119  -0.00117  -0.00159   0.00777  -0.00020
  90        3PY        -0.00857  -0.00110   0.00648  -0.00615   0.00325
  91        3PZ         0.00837  -0.00114  -0.00527   0.00803   0.00367
  92 12  O  1S          0.04484   0.00570  -0.02329  -0.07435  -0.02786
  93        2S          0.09101   0.01291  -0.04818  -0.15533  -0.05853
  94        3S          0.07835   0.00412  -0.04443  -0.13831  -0.05290
  95        4PX         0.03215   0.01076  -0.03182  -0.16305  -0.06647
  96        4PY         0.03222   0.01710  -0.01500  -0.00941   0.02115
  97        4PZ         0.00197  -0.00239   0.01757   0.03002   0.05933
  98        5PX         0.01829   0.00802  -0.02020  -0.10306  -0.04340
  99        5PY         0.01130   0.00818  -0.00507   0.00181   0.01524
 100        5PZ        -0.00132  -0.00238   0.01036   0.02185   0.03902
 101        6D 0        0.00105   0.00008  -0.00051  -0.00335  -0.00009
 102        6D+1        0.00026   0.00032  -0.00178  -0.00313  -0.00434
 103        6D-1        0.00077   0.00037  -0.00004  -0.00035   0.00050
 104        6D+2       -0.00253  -0.00082   0.00178   0.00827   0.00280
 105        6D-2       -0.00219  -0.00108   0.00071  -0.00059  -0.00146
 106 13  O  1S          0.02979   0.02105   0.00638  -0.06497  -0.03981
 107        2S          0.05950   0.04259   0.01224  -0.13008  -0.08134
 108        3S          0.05648   0.04076   0.01372  -0.15082  -0.09122
 109        4PX         0.01423   0.03827   0.02263   0.00371   0.01668
 110        4PY         0.01931   0.01306  -0.00564  -0.12569  -0.08873
 111        4PZ         0.00688  -0.00377   0.01763  -0.02865   0.00349
 112        5PX         0.00331   0.02292   0.01620   0.01186   0.01118
 113        5PY         0.00684   0.00707  -0.00271  -0.07665  -0.05895
 114        5PZ         0.00645  -0.00157   0.01229  -0.01729   0.00008
 115        6D 0        0.00000   0.00044  -0.00085  -0.00237  -0.00228
 116        6D+1       -0.00077  -0.00044  -0.00068  -0.00038  -0.00004
 117        6D-1       -0.00064   0.00030  -0.00094   0.00300   0.00047
 118        6D+2        0.00135   0.00008  -0.00074  -0.00612  -0.00397
 119        6D-2       -0.00068  -0.00141  -0.00127  -0.00130  -0.00182
                          16        17        18        19        20
                           O         O         O         O         O
     Eigenvalues --    -0.62727  -0.59524  -0.58555  -0.54981  -0.52574
   1 1   C  1S          0.07159   0.00708  -0.01405  -0.02797   0.01449
   2        2S         -0.16804  -0.01269   0.03857   0.06223  -0.03057
   3        3S         -0.01759  -0.01927  -0.03858   0.10565  -0.07019
   4        4PX        -0.19536   0.20663   0.02477  -0.16561   0.15531
   5        4PY        -0.10019  -0.06670   0.25358  -0.03943  -0.18041
   6        4PZ         0.08568   0.07519   0.11516   0.13111  -0.01906
   7        5PX        -0.00695   0.04106   0.05311  -0.05192   0.02836
   8        5PY        -0.02208  -0.01531   0.07057  -0.06889  -0.01444
   9        5PZ         0.02688   0.06261   0.03965   0.05376   0.03288
  10        6D 0        0.00292  -0.00312  -0.00403  -0.00392  -0.00078
  11        6D+1        0.00392   0.00035   0.00088   0.00628  -0.00302
  12        6D-1       -0.00350  -0.00521  -0.00211  -0.00003  -0.00314
  13        6D+2       -0.00510   0.00201   0.00117  -0.00926   0.02429
  14        6D-2        0.00376  -0.00484   0.00492  -0.00334  -0.00308
  15 2   C  1S         -0.01589  -0.00167  -0.02773   0.01381  -0.00910
  16        2S          0.03999   0.00182   0.05522  -0.01927   0.03129
  17        3S         -0.00832  -0.01662   0.10765  -0.09882  -0.01171
  18        4PX         0.05677   0.13041  -0.18728   0.08176  -0.22354
  19        4PY         0.08200  -0.22321  -0.01701   0.06902   0.18860
  20        4PZ         0.13519   0.19000   0.12520   0.11957   0.08308
  21        5PX         0.05061   0.06695  -0.10323   0.02272  -0.05537
  22        5PY         0.03626  -0.11800   0.02208   0.00642   0.08285
  23        5PZ         0.06213   0.09227   0.06278   0.05220   0.02009
  24        6D 0       -0.00487   0.00218  -0.00317  -0.01262  -0.01263
  25        6D+1        0.00057   0.00922   0.00010   0.00633  -0.00756
  26        6D-1       -0.00045  -0.01164   0.00070  -0.00665   0.00406
  27        6D+2       -0.00600  -0.00259   0.00086   0.00209   0.01616
  28        6D-2       -0.00255  -0.00540  -0.01459   0.01063  -0.00626
  29 3   C  1S          0.01434   0.01843   0.00606   0.00667  -0.02544
  30        2S         -0.03222  -0.03501  -0.00039  -0.01838   0.06410
  31        3S          0.00592  -0.07150  -0.06509   0.01976   0.09928
  32        4PX         0.12179  -0.08881   0.21252  -0.18179   0.24581
  33        4PY         0.16927   0.11969   0.02361  -0.22061  -0.11634
  34        4PZ         0.02919  -0.04317  -0.13870  -0.19629  -0.16245
  35        5PX         0.07927  -0.02424   0.08269  -0.07400   0.13617
  36        5PY         0.07588   0.01467   0.01872  -0.09957  -0.05459
  37        5PZ         0.01338   0.00145  -0.04674  -0.09797  -0.10897
  38        6D 0        0.00591   0.00200  -0.00398  -0.01852  -0.00824
  39        6D+1        0.00537   0.01170  -0.00299   0.00221  -0.00926
  40        6D-1       -0.00524  -0.01557  -0.00527  -0.01063   0.00089
  41        6D+2        0.00417  -0.01062   0.00393   0.00098   0.01170
  42        6D-2       -0.00936  -0.00813  -0.01500   0.01346  -0.00677
  43 4   N  1S          0.00630   0.02786   0.01317   0.00386  -0.00623
  44        2S          0.01511   0.06283   0.03172   0.00908  -0.01086
  45        3S          0.01460   0.10537   0.03954   0.00956  -0.05542
  46        4PX         0.06459  -0.14369   0.04712  -0.07516   0.07811
  47        4PY         0.15486   0.15196   0.02268  -0.07088  -0.05536
  48        4PZ         0.01487  -0.06455  -0.08299  -0.07156  -0.01637
  49        5PX        -0.02785   0.09070  -0.03221   0.04183  -0.05017
  50        5PY        -0.08507  -0.11069  -0.01311   0.04143   0.04771
  51        5PZ        -0.00531   0.05631   0.04441   0.03779  -0.00042
  52        6D 0        0.00122   0.00359  -0.00391  -0.00555  -0.00732
  53        6D+1        0.00732  -0.00163   0.00581  -0.00737   0.00482
  54        6D-1       -0.00268  -0.00752   0.00241   0.00064   0.00560
  55        6D+2        0.00636  -0.00242  -0.00058  -0.00988  -0.00088
  56        6D-2       -0.00006  -0.00087  -0.00543   0.00026  -0.00497
  57 5   H  1S          0.09809  -0.07688   0.02132  -0.10533   0.04236
  58        2S          0.02359  -0.02315   0.01082  -0.03440   0.01272
  59        3PX         0.00796  -0.00379  -0.00012  -0.00783   0.00121
  60        3PY        -0.00073  -0.00656   0.00133  -0.00308   0.00349
  61        3PZ         0.00334  -0.00326   0.00338   0.00011   0.00330
  62 6   H  1S         -0.10567  -0.07476   0.03384   0.08666   0.06045
  63        2S         -0.01616  -0.01634  -0.01019   0.02301   0.04288
  64        3PX        -0.00269   0.00386  -0.00421   0.00316  -0.00173
  65        3PY         0.00623   0.00391  -0.00371  -0.00347  -0.00373
  66        3PZ         0.00734   0.00617   0.00013  -0.00499  -0.00376
  67 7   H  1S         -0.04541   0.03894  -0.08314   0.01074  -0.07628
  68        2S         -0.01683   0.00967  -0.03878  -0.00671  -0.03112
  69        3PX         0.00154  -0.00177   0.00515   0.00306   0.00214
  70        3PY        -0.00391  -0.00388  -0.00062   0.00413   0.00215
  71        3PZ        -0.00486   0.00429  -0.00345   0.00443  -0.00302
  72 8   H  1S         -0.19171  -0.04983  -0.15141   0.26419  -0.04543
  73        2S         -0.03976  -0.01401  -0.04303   0.09406  -0.02093
  74        3PX        -0.00832  -0.00406  -0.00363   0.00892   0.00239
  75        3PY        -0.00839  -0.00067  -0.00975   0.01000  -0.00506
  76        3PZ         0.00148  -0.00090  -0.00312  -0.00547  -0.00325
  77 9   H  1S          0.06504  -0.02539  -0.10235  -0.26365  -0.13504
  78        2S          0.01342   0.00393  -0.04059  -0.09265  -0.04102
  79        3PX         0.00245  -0.00074   0.00532  -0.00168   0.00598
  80        3PY         0.00120   0.00324   0.00349   0.00223   0.00174
  81        3PZ        -0.00403   0.00048   0.00612   0.01493   0.00636
  82 10  H  1S         -0.11688  -0.08648  -0.05832  -0.15555  -0.12408
  83        2S         -0.02026  -0.02158  -0.02656  -0.05977  -0.06076
  84        3PX        -0.00008   0.00166  -0.00390   0.00101  -0.00558
  85        3PY        -0.00353  -0.00719  -0.00456  -0.00376   0.00063
  86        3PZ        -0.00615  -0.00188  -0.00077  -0.00844  -0.00717
  87 11  H  1S          0.05174   0.28315   0.06273   0.02999  -0.13800
  88        2S          0.01626   0.07627   0.01862   0.02011  -0.05111
  89        3PX        -0.00074  -0.00362  -0.00510   0.00198  -0.00153
  90        3PY         0.00434   0.01354   0.00259   0.00390  -0.00270
  91        3PZ         0.00031  -0.00948  -0.00129   0.00221   0.00948
  92 12  O  1S          0.08167  -0.04098   0.00942   0.02297  -0.02014
  93        2S          0.16402  -0.08125   0.02145   0.04481  -0.04228
  94        3S          0.21775  -0.12347   0.01630   0.07762  -0.05764
  95        4PX         0.28738  -0.15565   0.10607   0.15938  -0.19976
  96        4PY        -0.15517  -0.00527   0.23321  -0.13177  -0.07955
  97        4PZ        -0.05488   0.16429   0.08757   0.04629   0.10186
  98        5PX         0.17919  -0.09747   0.07454   0.10660  -0.14136
  99        5PY        -0.10275  -0.00539   0.15808  -0.08487  -0.06601
 100        5PZ        -0.03399   0.10829   0.05873   0.03727   0.06951
 101        6D 0        0.00668  -0.00022   0.00381   0.00541  -0.00193
 102        6D+1        0.00449  -0.01089  -0.00370  -0.00223  -0.00667
 103        6D-1       -0.00226   0.00107   0.00376  -0.00096  -0.00086
 104        6D+2       -0.01098   0.00550  -0.00675  -0.00570   0.00851
 105        6D-2        0.01013   0.00005  -0.01069   0.00661   0.00411
 106 13  O  1S          0.03224   0.02749  -0.06250  -0.01596   0.04448
 107        2S          0.06400   0.05592  -0.12174  -0.03439   0.08845
 108        3S          0.07847   0.07263  -0.17629  -0.03261   0.12449
 109        4PX        -0.11453   0.05883   0.14098  -0.04321  -0.05707
 110        4PY         0.05111   0.09373  -0.21174  -0.11819   0.21852
 111        4PZ         0.08145   0.08497  -0.03709   0.03400   0.11460
 112        5PX        -0.07910   0.04205   0.09478  -0.03132  -0.03886
 113        5PY         0.03207   0.06620  -0.14334  -0.08660   0.15971
 114        5PZ         0.05511   0.05667  -0.02485   0.01898   0.08225
 115        6D 0        0.00003   0.00009  -0.00545  -0.00357   0.00281
[...]
 119        6D-2        0.00000   0.00000   0.00000   0.00000   0.00000
                         106       107       108       109       110
 106 13  O  1S          2.13537
 107        2S         -0.09309   0.67369
 108        3S         -0.05070   0.41217   0.47570
 109        4PX         0.00000   0.00000   0.00000   0.71300
 110        4PY         0.00000   0.00000   0.00000   0.00000   0.57811
 111        4PZ         0.00000   0.00000   0.00000   0.00000   0.00000
 112        5PX         0.00000   0.00000   0.00000   0.27451   0.00000
 113        5PY         0.00000   0.00000   0.00000   0.00000   0.19995
 114        5PZ         0.00000   0.00000   0.00000   0.00000   0.00000
 115        6D 0        0.00000   0.00000   0.00000   0.00000   0.00000
 116        6D+1        0.00000   0.00000   0.00000   0.00000   0.00000
 117        6D-1        0.00000   0.00000   0.00000   0.00000   0.00000
 118        6D+2        0.00000   0.00000   0.00000   0.00000   0.00000
 119        6D-2        0.00000   0.00000   0.00000   0.00000   0.00000
                         111       112       113       114       115
 111        4PZ         0.61865
 112        5PX         0.00000   0.42570
 113        5PY         0.00000   0.00000   0.28917
 114        5PZ         0.25545   0.00000   0.00000   0.42356
 115        6D 0        0.00000   0.00000   0.00000   0.00000   0.00038
 116        6D+1        0.00000   0.00000   0.00000   0.00000   0.00000
 117        6D-1        0.00000   0.00000   0.00000   0.00000   0.00000
 118        6D+2        0.00000   0.00000   0.00000   0.00000   0.00000
 119        6D-2        0.00000   0.00000   0.00000   0.00000   0.00000
                         116       117       118       119
 116        6D+1        0.00010
 117        6D-1        0.00000   0.00131
 118        6D+2        0.00000   0.00000   0.00105
 119        6D-2        0.00000   0.00000   0.00000   0.00098
     Gross orbital populations:
                           1
   1 1   C  1S          1.99000
   2        2S          0.89895
   3        3S          0.11881
   4        4PX         0.73657
   5        4PY         0.70846
   6        4PZ         0.41786
   7        5PX         0.11677
   8        5PY         0.14316
   9        5PZ         0.26545
  10        6D 0        0.00922
  11        6D+1        0.02931
  12        6D-1        0.02267
  13        6D+2        0.04923
  14        6D-2        0.06394
  15 2   C  1S          1.98886
  16        2S          0.87045
  17        3S          0.26066
  18        4PX         0.68627
  19        4PY         0.70693
  20        4PZ         0.68807
  21        5PX         0.23267
  22        5PY         0.34266
  23        5PZ         0.35616
  24        6D 0        0.01123
  25        6D+1        0.00568
  26        6D-1        0.00427
  27        6D+2        0.00881
  28        6D-2        0.01090
  29 3   C  1S          1.98910
  30        2S          0.88207
  31        3S          0.18882
  32        4PX         0.71663
  33        4PY         0.59895
  34        4PZ         0.70598
  35        5PX         0.26722
  36        5PY         0.18851
  37        5PZ         0.30527
  38        6D 0        0.01440
  39        6D+1        0.00728
  40        6D-1        0.00871
  41        6D+2        0.01161
  42        6D-2        0.01602
  43 4   N  1S          1.98924
  44        2S          0.97748
  45        3S          0.35114
  46        4PX         0.83018
  47        4PY         0.82500
  48        4PZ         0.79809
  49        5PX         0.40567
  50        5PY         0.47648
  51        5PZ         0.40746
  52        6D 0        0.00646
  53        6D+1        0.00384
  54        6D-1        0.00279
  55        6D+2        0.00357
  56        6D-2        0.00609
  57 5   H  1S          0.69519
  58        2S          0.04631
  59        3PX         0.00972
  60        3PY         0.00658
  61        3PZ         0.03206
  62 6   H  1S          0.69404
  63        2S          0.04253
  64        3PX         0.02466
  65        3PY         0.00955
  66        3PZ         0.01408
  67 7   H  1S          0.62408
  68        2S          0.08059
  69        3PX         0.03501
  70        3PY         0.01776
  71        3PZ         0.00719
  72 8   H  1S          0.75780
  73        2S          0.13181
  74        3PX         0.00931
  75        3PY         0.01153
  76        3PZ         0.00389
  77 9   H  1S          0.75808
  78        2S          0.13214
  79        3PX         0.00294
  80        3PY         0.00244
  81        3PZ         0.01921
  82 10  H  1S          0.74869
  83        2S          0.15313
  84        3PX         0.00329
  85        3PY         0.00427
  86        3PZ         0.01791
  87 11  H  1S          0.75193
  88        2S          0.15884
  89        3PX         0.00503
  90        3PY         0.01380
  91        3PZ         0.00616
  92 12  O  1S          1.99065
  93        2S          1.04993
  94        3S          0.71781
  95        4PX         0.89262
  96        4PY         1.06805
  97        4PZ         0.87894
  98        5PX         0.50585
  99        5PY         0.74323
 100        5PZ         0.71645
 101        6D 0        0.00210
 102        6D+1        0.00503
 103        6D-1        0.00034
 104        6D+2        0.00610
 105        6D-2        0.00427
 106 13  O  1S          1.99060
 107        2S          1.04161
 108        3S          0.75366
 109        4PX         1.03181
 110        4PY         0.89781
 111        4PZ         0.91429
 112        5PX         0.72126
 113        5PY         0.53935
 114        5PZ         0.75313
 115        6D 0        0.00192
 116        6D+1        0.00046
 117        6D-1        0.00406
 118        6D+2        0.00493
 119        6D-2        0.00412
          Condensed to atoms (all electrons):
               1          2          3          4          5          6
     1  C    4.162202   0.305504  -0.042254  -0.000265  -0.000557  -0.000302
     2  C    0.305504   5.292693   0.220061  -0.041202  -0.001528   0.004843
     3  C   -0.042254   0.220061   4.717959   0.230350  -0.018138  -0.009636
     4  N   -0.000265  -0.041202   0.230350   5.890184   0.373785   0.370944
     5  H   -0.000557  -0.001528  -0.018138   0.373785   0.450626  -0.012138
     6  H   -0.000302   0.004843  -0.009636   0.370944  -0.012138   0.443837
     7  H   -0.003935  -0.004816  -0.024658   0.350853  -0.005535  -0.004815
     8  H    0.004144  -0.019612   0.419021  -0.021047  -0.006191  -0.001991
     9  H   -0.002354  -0.030866   0.419753  -0.023574   0.005053  -0.006342
    10  H   -0.010486   0.367727  -0.017485  -0.002754   0.003121  -0.000172
    11  H   -0.009478   0.377290  -0.028446   0.004416   0.000040  -0.000141
    12  O    0.652600  -0.134163   0.005380  -0.000133   0.000002   0.000006
    13  O    0.515585  -0.162313   0.028656  -0.048070   0.001312   0.000760
               7          8          9         10         11         12
     1  C   -0.003935   0.004144  -0.002354  -0.010486  -0.009478   0.652600
     2  C   -0.004816  -0.019612  -0.030866   0.367727   0.377290  -0.134163
     3  C   -0.024658   0.419021   0.419753  -0.017485  -0.028446   0.005380
     4  N    0.350853  -0.021047  -0.023574  -0.002754   0.004416  -0.000133
     5  H   -0.005535  -0.006191   0.005053   0.003121   0.000040   0.000002
     6  H   -0.004815  -0.001991  -0.006342  -0.000172  -0.000141   0.000006
     7  H    0.387337   0.004194  -0.002714  -0.000759   0.000110   0.000905
     8  H    0.004194   0.567352  -0.021074  -0.006842  -0.003417  -0.000151
     9  H   -0.002714  -0.021074   0.573900   0.005568  -0.003265   0.000251
    10  H   -0.000759  -0.006842   0.005568   0.589856  -0.006525   0.003528
    11  H    0.000110  -0.003417  -0.003265  -0.006525   0.588850   0.011298
    12  O    0.000905  -0.000151   0.000251   0.003528   0.011298   8.128493
    13  O    0.068460  -0.000048   0.000480   0.002500   0.005035  -0.086640
              13
     1  C    0.515585
     2  C   -0.162313
     3  C    0.028656
     4  N   -0.048070
     5  H    0.001312
     6  H    0.000760
     7  H    0.068460
     8  H   -0.000048
     9  H    0.000480
    10  H    0.002500
    11  H    0.005035
    12  O   -0.086640
    13  O    8.333309
 Mulliken charges:
               1
     1  C    0.429596
     2  C   -0.173617
     3  C    0.099437
     4  N   -0.083486
     5  H    0.210147
     6  H    0.215149
     7  H    0.235373
     8  H    0.085663
     9  H    0.085184
    10  H    0.072723
    11  H    0.064234
    12  O   -0.581376
    13  O   -0.659025
 Sum of Mulliken charges =   0.00000
 Mulliken charges with hydrogens summed into heavy atoms:
               1
     1  C    0.429596
     2  C   -0.036661
     3  C    0.270283
     4  N    0.577183
    12  O   -0.581376
    13  O   -0.659025
 Electronic spatial extent (au):  <R**2>=            601.5887
 Charge=              0.0000 electrons
 Dipole moment (field-independent basis, Debye):
    X=            -14.6515    Y=             -1.8184    Z=             -1.1800  Tot=             14.8110
 Quadrupole moment (field-independent basis, Debye-Ang):
   XX=            -36.0970   YY=            -38.1182   ZZ=            -32.4611
   XY=             -4.8473   XZ=              1.0707   YZ=             -1.3337
 Traceless Quadrupole moment (field-independent basis, Debye-Ang):
   XX=             -0.5383   YY=             -2.5594   ZZ=              3.0977
   XY=             -4.8473   XZ=              1.0707   YZ=             -1.3337
 Octapole moment (field-independent basis, Debye-Ang**2):
  XXX=            -85.2227  YYY=             -2.9671  ZZZ=             -3.0325  XYY=            -12.7791
  XXY=             13.0773  XXZ=             -3.0410  XZZ=             -7.2747  YZZ=              1.6982
  YYZ=             -0.6264  XYZ=             -0.1606
 Hexadecapole moment (field-independent basis, Debye-Ang**3):
 XXXX=           -473.1759 YYYY=           -190.3134 ZZZZ=            -50.1061 XXXY=            -21.7163
 XXXZ=              6.1283 YYYX=            -14.0746 YYYZ=             -3.3109 ZZZX=              6.4042
 ZZZY=             -1.5961 XXYY=           -101.5176 XXZZ=            -77.6349 YYZZ=            -40.4924
 XXYZ=             -0.4153 YYXZ=             -0.1865 ZZXY=             -4.1169
 N-N= 2.497148856682D+02 E-N=-1.255770400192D+03  KE= 3.205018365745D+02
 Orbital energies and kinetic energies (alpha):
                                 1                 2
   1         O               -20.479232         28.831602
   2         O               -20.470492         28.832387
   3         O               -15.671103         21.827938
   4         O               -11.325054         15.821328
   5         O               -11.292301         15.814249
   6         O               -11.229799         15.809133
   7         O                -1.365578          2.697270
   8         O                -1.294435          2.051510
   9         O                -1.253458          2.957519
  10         O                -1.033519          1.584148
  11         O                -0.883571          1.537734
  12         O                -0.773574          1.326760
  13         O                -0.765233          1.353369
  14         O                -0.707314          1.948499
  15         O                -0.655663          1.345992
  16         O                -0.622184          1.885512
  17         O                -0.610737          2.098054
  18         O                -0.594503          1.431468
  19         O                -0.559976          1.379863
  20         O                -0.539102          1.537862
  21         O                -0.508178          1.388123
  22         O                -0.408008          2.400890
  23         O                -0.394892          2.208396
  24         O                -0.390549          2.181313
  25         V                 0.158162          0.672902
  26         V                 0.203752          0.680217
  27         V                 0.209401          0.650557
  28         V                 0.234512          1.193340
  29         V                 0.247564          0.654252
  30         V                 0.266020          0.749757
  31         V                 0.297673          1.270583
  32         V                 0.317449          1.018651
  33         V                 0.353148          1.445639
  34         V                 0.384517          1.259862
  35         V                 0.424725          1.274084
  36         V                 0.456132          1.279307
  37         V                 0.543660          1.365825
  38         V                 0.587622          1.541165
  39         V                 0.607081          1.840568
  40         V                 0.670567          1.647220
  41         V                 0.689884          1.692216
  42         V                 0.758153          2.199484
  43         V                 0.768462          1.854094
  44         V                 0.809629          2.803718
  45         V                 0.832926          3.167383
  46         V                 0.860084          2.680556
  47         V                 0.863042          2.445891
  48         V                 0.867991          2.806623
  49         V                 0.887839          2.649351
  50         V                 0.892387          2.509410
  51         V                 0.914700          2.495582
  52         V                 0.927206          2.313419
  53         V                 0.941511          2.433849
  54         V                 0.994587          2.967224
  55         V                 1.002627          2.769734
  56         V                 1.046089          2.414423
  57         V                 1.078806          2.614735
  58         V                 1.111007          2.539800
  59         V                 1.217437          2.768874
  60         V                 1.265311          2.714344
  61         V                 1.282250          3.083986
  62         V                 1.332222          2.887224
  63         V                 1.375424          2.524134
  64         V                 1.419336          3.081934
  65         V                 1.448896          3.456958
  66         V                 1.456863          3.081012
  67         V                 1.527304          2.800785
  68         V                 1.548524          2.412922
  69         V                 1.590415          2.729789
  70         V                 1.698600          4.095058
  71         V                 1.735626          2.832164
  72         V                 1.795434          2.758192
  73         V                 1.830851          2.621290
  74         V                 1.871329          2.695398
  75         V                 1.911697          2.915795
  76         V                 1.926543          3.053276
  77         V                 1.963804          3.578915
  78         V                 2.022959          3.081736
  79         V                 2.038756          2.949895
  80         V                 2.080626          2.858663
  81         V                 2.098540          3.255071
  82         V                 2.154400          2.844321
  83         V                 2.167236          2.912124
  84         V                 2.180480          3.033953
  85         V                 2.198847          3.193934
  86         V                 2.250553          3.033806
  87         V                 2.275550          3.114078
  88         V                 2.321004          3.379839
  89         V                 2.342318          3.529683
  90         V                 2.375320          3.929701
  91         V                 2.442407          3.636046
  92         V                 2.510003          4.118813
  93         V                 2.558005          4.278424
  94         V                 2.588719          3.670496
  95         V                 2.639620          3.822733
  96         V                 2.688528          3.869929
  97         V                 2.756605          4.166730
  98         V                 2.809851          3.825246
  99         V                 2.825988          3.964480
 100         V                 2.968635          4.325880
 101         V                 3.032892          4.271461
 102         V                 3.069383          4.271764
 103         V                 3.084843          4.300104
 104         V                 3.103453          4.434174
 105         V                 3.128206          4.396404
 106         V                 3.159797          4.565417
 107         V                 3.247162          4.600181
 108         V                 3.276636          4.622312
 109         V                 3.318886          4.722748
 110         V                 3.397349          4.770899
 111         V                 3.432285          4.764332
 112         V                 3.478890          4.967225
 113         V                 3.612448          5.217632
 114         V                 3.681740          5.327501
 115         V                 3.689621          5.238353
 116         V                 3.713704          5.043953
 117         V                 3.842746          5.469059
 118         V                 4.086095          5.900443
 119         V                 4.170296          6.015033
 Total kinetic energy from orbitals= 3.205018365745D+02
 No NMR shielding tensors so no spin-rotation constants.
 Leave Link  601 at Wed Apr 29 13:02:07 2026, MaxMem=    33554432 cpu:         0.1
 (Enter /opt/g09/g09/l9999.exe)
 B after Tr=     0.161143   -0.160209   -0.034866
         Rot=    0.996520    0.060471    0.036449    0.044300 Ang=   9.56 deg.
 Final structure in terms of initial Z-matrix:
 C
 C,1,cc2
 C,2,cc3,1,ccc3
 N,3,nc4,2,ncc4,1,dih4,0
 H,4,hn5,3,hnc5,2,dih5,0
 H,4,hn6,3,hnc6,5,dih6,0
 H,4,hn7,5,hnh7,6,dih7,0
 H,3,hc8,4,hcn8,2,dih8,0
 H,3,hc9,4,hcn9,2,dih9,0
 H,2,hc10,1,hcc10,3,dih10,0
 H,2,hc11,3,hcc11,1,dih11,0
 O,1,oc12,2,occ12,3,dih12,0
 O,1,oc13,12,oco13,2,dih13,0
      Variables:
 cc2=1.54027464
 cc3=1.52098344
 ccc3=114.57976462
 nc4=1.48567002
 ncc4=110.24960153
 dih4=56.54580615
 hn5=1.01068166
 hnc5=112.38094712
 dih5=70.94382601
 hn6=1.00977554
 hnc6=112.70492336
 dih6=121.85420984
 hn7=1.03651565
 hnh7=108.73755517
 dih7=-120.20083006
 hc8=1.08650914
 hcn8=108.49878883
 dih8=-123.10483058
 hc9=1.08700727
 hcn9=106.39510744
 dih9=120.42199889
 hc10=1.09428943
 hcc10=107.57137446
 dih10=122.80888933
 hc11=1.08882977
 hcc11=108.73614268
 dih11=122.38357734
 oc12=1.21985428
 occ12=117.06608772
 dih12=155.19109699
 oc13=1.24840427
 oco13=126.79402752
 dih13=-178.08089862

 Test job not archived.
 1\1\GINC-KADET27\FOpt\RHF\def2SVP\C3H7N1O2\MDOROHUN\29-Apr-2026\0\\#P 
 RHF/def2SVP SCRF(PCM,solvent=water) Opt Pop=Full GFInput IOP(6/7=3)\\O
 ptymalizacja b-alanina w wodzie\\0,1\C,-0.1505224096,0.1556857009,-0.0
 375577825\C,-0.0160271031,0.0519270132,1.4933214125\C,1.4164275893,-0.
 0253246065,1.9987878849\N,2.1938596013,1.1475429201,1.5221363982\H,1.9
 161677314,2.0049568224,1.9795268651\H,3.1884422668,1.0368018959,1.6570
 007421\H,1.9632030809,1.2181093289,0.5140775488\H,1.465943349,-0.05387
 42591,3.0837925912\H,1.9198494971,-0.9062079336,1.6086651441\H,-0.5229
 259398,0.9183771301,1.9289670502\H,-0.5571913592,-0.826907325,1.840224
 4528\O,-1.194841777,-0.2368431455,-0.5308757661\O,0.8156580043,0.66682
 17347,-0.6406735048\\Version=ES64L-G09RevD.01\State=1-A\HF=-321.634729
 9\RMSD=4.706e-09\RMSF=1.209e-05\Dipole=3.7882942,1.2956289,4.2338268\Q
 uadrupole=1.4582717,3.0757036,-4.5339753,0.9051161,-0.303619,1.4711479
 \PG=C01 [X(C3H7N1O2)]\\@


 DESK:  A WASTEBASKET WITH DRAWERS.
 Job cpu time:       0 days  0 hours  1 minutes 35.8 seconds.
 File lengths (MBytes):  RWF=     53 Int=      0 D2E=      0 Chk=      4 Scr=      1
 Normal termination of Gaussian 09 at Wed Apr 29 13:02:07 2026.
