 Entering Gaussian System, Link 0=/opt/g09/g09/g09
 Input=b-ala_opt.inp
 Output=b-ala_opt.log
 Initial command:
 /opt/g09/g09/l1.exe "/tmp/Gau-8828.inp" -scrdir="/tmp/"
 Entering Link 1 = /opt/g09/g09/l1.exe PID=      8830.
  
 Copyright (c) 1988,1990,1992,1993,1995,1998,2003,2009,2013,
            Gaussian, Inc.  All Rights Reserved.
  
 This is part of the Gaussian(R) 09 program.  It is based on
 the Gaussian(R) 03 system (copyright 2003, Gaussian, Inc.),
 the Gaussian(R) 98 system (copyright 1998, Gaussian, Inc.),
 the Gaussian(R) 94 system (copyright 1995, Gaussian, Inc.),
 the Gaussian 92(TM) system (copyright 1992, Gaussian, Inc.),
 the Gaussian 90(TM) system (copyright 1990, Gaussian, Inc.),
 the Gaussian 88(TM) system (copyright 1988, Gaussian, Inc.),
 the Gaussian 86(TM) system (copyright 1986, Carnegie Mellon
 University), and the Gaussian 82(TM) system (copyright 1983,
 Carnegie Mellon University). Gaussian is a federally registered
 trademark of Gaussian, Inc.
  
 This software contains proprietary and confidential information,
 including trade secrets, belonging to Gaussian, Inc.
  
 This software is provided under written license and may be
 used, copied, transmitted, or stored only in accord with that
 written license.
  
 The following legend is applicable only to US Government
 contracts under FAR:
  
                    RESTRICTED RIGHTS LEGEND
  
 Use, reproduction and disclosure by the US Government is
 subject to restrictions as set forth in subparagraphs (a)
 and (c) of the Commercial Computer Software - Restricted
 Rights clause in FAR 52.227-19.
  
 Gaussian, Inc.
 340 Quinnipiac St., Bldg. 40, Wallingford CT 06492
  
  
 ---------------------------------------------------------------
 Warning -- This program may not be used in any manner that
 competes with the business of Gaussian, Inc. or will provide
 assistance to any competitor of Gaussian, Inc.  The licensee
 of this program is prohibited from giving any competitor of
 Gaussian, Inc. access to this program.  By using this program,
 the user acknowledges that Gaussian, Inc. is engaged in the
 business of creating and licensing software in the field of
 computational chemistry and represents and warrants to the
 licensee that it is not a competitor of Gaussian, Inc. and that
 it will not use this program in any manner prohibited above.
 ---------------------------------------------------------------
  

 Cite this work as:
 Gaussian 09, Revision D.01,
 M. J. Frisch, G. W. Trucks, H. B. Schlegel, G. E. Scuseria, 
 M. A. Robb, J. R. Cheeseman, G. Scalmani, V. Barone, B. Mennucci, 
 G. A. Petersson, H. Nakatsuji, M. Caricato, X. Li, H. P. Hratchian, 
 A. F. Izmaylov, J. Bloino, G. Zheng, J. L. Sonnenberg, M. Hada, 
 M. Ehara, K. Toyota, R. Fukuda, J. Hasegawa, M. Ishida, T. Nakajima, 
 Y. Honda, O. Kitao, H. Nakai, T. Vreven, J. A. Montgomery, Jr., 
 J. E. Peralta, F. Ogliaro, M. Bearpark, J. J. Heyd, E. Brothers, 
 K. N. Kudin, V. N. Staroverov, T. Keith, R. Kobayashi, J. Normand, 
 K. Raghavachari, A. Rendell, J. C. Burant, S. S. Iyengar, J. Tomasi, 
 M. Cossi, N. Rega, J. M. Millam, M. Klene, J. E. Knox, J. B. Cross, 
 V. Bakken, C. Adamo, J. Jaramillo, R. Gomperts, R. E. Stratmann, 
 O. Yazyev, A. J. Austin, R. Cammi, C. Pomelli, J. W. Ochterski, 
 R. L. Martin, K. Morokuma, V. G. Zakrzewski, G. A. Voth, 
 P. Salvador, J. J. Dannenberg, S. Dapprich, A. D. Daniels, 
 O. Farkas, J. B. Foresman, J. V. Ortiz, J. Cioslowski, 
 and D. J. Fox, Gaussian, Inc., Wallingford CT, 2013.
 
 ******************************************
 Gaussian 09:  ES64L-G09RevD.01 24-Apr-2013
                29-Apr-2026 
 ******************************************
 ----------------------------------------------
 #P RHF/def2SVP Opt Pop=Full GFInput IOP(6/7=3)
 ----------------------------------------------
 1/18=20,19=15,38=1/1,3;
 2/9=110,12=2,17=6,18=5,40=1/2;
 3/5=43,7=101,11=1,16=1,24=10,25=1,30=1,71=1,116=1/1,2,3;
 4//1;
 5/5=2,38=5/2;
 6/7=3,28=1/1;
 7//1,2,3,16;
 1/18=20,19=15/3(2);
 2/9=110/2;
 99//99;
 2/9=110/2;
 3/5=43,7=101,11=1,16=1,25=1,30=1,71=1,116=1/1,2,3;
 4/5=5,16=3,69=1/1;
 5/5=2,38=5/2;
 7//1,2,3,16;
 1/18=20,19=15/3(-5);
 2/9=110/2;
 6/7=3,19=2,28=1/1;
 99/9=1/99;
 Leave Link    1 at Wed Apr 29 12:59:53 2026, MaxMem=           0 cpu:         0.0
 (Enter /opt/g09/g09/l101.exe)
 -----------------------
 Optymalizacja b-alanina
 -----------------------
 Symbolic Z-matrix:
 Charge =  0 Multiplicity = 1
 c
 c                    1    cc2
 c                    2    cc3      1    ccc3
 n                    3    nc4      2    ncc4     1    dih4     0
 h                    4    hn5      3    hnc5     2    dih5     0
 h                    4    hn6      3    hnc6     5    dih6     0
 h                    4    hn7      5    hnh7     6    dih7     0
 h                    3    hc8      4    hcn8     2    dih8     0
 h                    3    hc9      4    hcn9     2    dih9     0
 h                    2    hc10     1    hcc10    3    dih10    0
 h                    2    hc11     3    hcc11    1    dih11    0
 o                    1    oc12     2    occ12    3    dih12    0
 o                    1    oc13     12   oco13    2    dih13    0
       Variables:
  cc2                   1.5                      
  cc3                   1.5                      
  ccc3                109.471                    
  nc4                   1.46                     
  ncc4                109.471                    
  dih4                 60.                       
  hn5                   1.03                     
  hnc5                109.471                    
  dih5                120.                       
  hn6                   1.03                     
  hnc6                109.471                    
  dih6                120.                       
  hn7                   1.03                     
  hnh7                109.471                    
  dih7               -120.                       
  hc8                   1.07                     
  hcn8                109.471                    
  dih8               -120.                       
  hc9                   1.07                     
  hcn9                109.471                    
  dih9                120.                       
  hc10                  1.07                     
  hcc10               109.471                    
  dih10               120.                       
  hc11                  1.07                     
  hcc11               109.471                    
  dih11               120.                       
  oc12                  1.24                     
  occ12               120.                       
  dih12               180.                       
  oc13                  1.38                     
  oco13               120.                       
  dih13               180.                       
 
     9 tetrahedral angles replaced.
 NAtoms=     13 NQM=       13 NQMF=       0 NMMI=      0 NMMIF=      0
                NMic=       0 NMicF=      0.
                    Isotopes and Nuclear Properties:
 (Nuclear quadrupole moments (NQMom) in fm**2, nuclear magnetic moments (NMagM)
  in nuclear magnetons)

  Atom         1           2           3           4           5           6           7           8           9          10
 IAtWgt=          12          12          12          14           1           1           1           1           1           1
 AtmWgt=  12.0000000  12.0000000  12.0000000  14.0030740   1.0078250   1.0078250   1.0078250   1.0078250   1.0078250   1.0078250
 NucSpn=           0           0           0           2           1           1           1           1           1           1
 AtZEff=   0.0000000   0.0000000   0.0000000   0.0000000   0.0000000   0.0000000   0.0000000   0.0000000   0.0000000   0.0000000
 NQMom=    0.0000000   0.0000000   0.0000000   2.0440000   0.0000000   0.0000000   0.0000000   0.0000000   0.0000000   0.0000000
 NMagM=    0.0000000   0.0000000   0.0000000   0.4037610   2.7928460   2.7928460   2.7928460   2.7928460   2.7928460   2.7928460
 AtZNuc=   6.0000000   6.0000000   6.0000000   7.0000000   1.0000000   1.0000000   1.0000000   1.0000000   1.0000000   1.0000000

  Atom        11          12          13
 IAtWgt=           1          16          16
 AtmWgt=   1.0078250  15.9949146  15.9949146
 NucSpn=           1           0           0
 AtZEff=   0.0000000   0.0000000   0.0000000
 NQMom=    0.0000000   0.0000000   0.0000000
 NMagM=    2.7928460   0.0000000   0.0000000
 AtZNuc=   1.0000000   8.0000000   8.0000000
 Leave Link  101 at Wed Apr 29 12:59:53 2026, MaxMem=    33554432 cpu:         0.1
 (Enter /opt/g09/g09/l103.exe)

 GradGradGradGradGradGradGradGradGradGradGradGradGradGradGradGradGradGrad
 Berny optimization.
 Initialization pass.
                           ----------------------------
                           !    Initial Parameters    !
                           ! (Angstroms and Degrees)  !
 --------------------------                            --------------------------
 ! Name  Definition              Value          Derivative Info.                !
 --------------------------------------------------------------------------------
 ! R1    R(1,2)                  1.5            estimate D2E/DX2                !
 ! R2    R(1,12)                 1.24           estimate D2E/DX2                !
 ! R3    R(1,13)                 1.38           estimate D2E/DX2                !
 ! R4    R(2,3)                  1.5            estimate D2E/DX2                !
 ! R5    R(2,10)                 1.07           estimate D2E/DX2                !
 ! R6    R(2,11)                 1.07           estimate D2E/DX2                !
 ! R7    R(3,4)                  1.46           estimate D2E/DX2                !
 ! R8    R(3,8)                  1.07           estimate D2E/DX2                !
 ! R9    R(3,9)                  1.07           estimate D2E/DX2                !
 ! R10   R(4,5)                  1.03           estimate D2E/DX2                !
 ! R11   R(4,6)                  1.03           estimate D2E/DX2                !
 ! R12   R(4,7)                  1.03           estimate D2E/DX2                !
 ! A1    A(2,1,12)             120.0            estimate D2E/DX2                !
 ! A2    A(2,1,13)             120.0            estimate D2E/DX2                !
 ! A3    A(12,1,13)            120.0            estimate D2E/DX2                !
 ! A4    A(1,2,3)              109.4712         estimate D2E/DX2                !
 ! A5    A(1,2,10)             109.4712         estimate D2E/DX2                !
 ! A6    A(1,2,11)             109.4712         estimate D2E/DX2                !
 ! A7    A(3,2,10)             109.4712         estimate D2E/DX2                !
 ! A8    A(3,2,11)             109.4712         estimate D2E/DX2                !
 ! A9    A(10,2,11)            109.4712         estimate D2E/DX2                !
 ! A10   A(2,3,4)              109.4712         estimate D2E/DX2                !
 ! A11   A(2,3,8)              109.4712         estimate D2E/DX2                !
 ! A12   A(2,3,9)              109.4712         estimate D2E/DX2                !
 ! A13   A(4,3,8)              109.4712         estimate D2E/DX2                !
 ! A14   A(4,3,9)              109.4712         estimate D2E/DX2                !
 ! A15   A(8,3,9)              109.4712         estimate D2E/DX2                !
 ! A16   A(3,4,5)              109.4712         estimate D2E/DX2                !
 ! A17   A(3,4,6)              109.4712         estimate D2E/DX2                !
 ! A18   A(3,4,7)              109.4712         estimate D2E/DX2                !
 ! A19   A(5,4,6)              109.4712         estimate D2E/DX2                !
 ! A20   A(5,4,7)              109.4712         estimate D2E/DX2                !
 ! A21   A(6,4,7)              109.4712         estimate D2E/DX2                !
 ! D1    D(12,1,2,3)           180.0            estimate D2E/DX2                !
 ! D2    D(12,1,2,10)          -60.0            estimate D2E/DX2                !
 ! D3    D(12,1,2,11)           60.0            estimate D2E/DX2                !
 ! D4    D(13,1,2,3)             0.0            estimate D2E/DX2                !
 ! D5    D(13,1,2,10)          120.0            estimate D2E/DX2                !
 ! D6    D(13,1,2,11)         -120.0            estimate D2E/DX2                !
 ! D7    D(1,2,3,4)             60.0            estimate D2E/DX2                !
 ! D8    D(1,2,3,8)            180.0            estimate D2E/DX2                !
 ! D9    D(1,2,3,9)            -60.0            estimate D2E/DX2                !
 ! D10   D(10,2,3,4)           -60.0            estimate D2E/DX2                !
 ! D11   D(10,2,3,8)            60.0            estimate D2E/DX2                !
 ! D12   D(10,2,3,9)           180.0            estimate D2E/DX2                !
 ! D13   D(11,2,3,4)           180.0            estimate D2E/DX2                !
 ! D14   D(11,2,3,8)           -60.0            estimate D2E/DX2                !
 ! D15   D(11,2,3,9)            60.0            estimate D2E/DX2                !
 ! D16   D(2,3,4,5)            120.0            estimate D2E/DX2                !
 ! D17   D(2,3,4,6)           -120.0            estimate D2E/DX2                !
 ! D18   D(2,3,4,7)              0.0            estimate D2E/DX2                !
 ! D19   D(8,3,4,5)              0.0            estimate D2E/DX2                !
 ! D20   D(8,3,4,6)            120.0            estimate D2E/DX2                !
 ! D21   D(8,3,4,7)           -120.0            estimate D2E/DX2                !
 ! D22   D(9,3,4,5)           -120.0            estimate D2E/DX2                !
 ! D23   D(9,3,4,6)              0.0            estimate D2E/DX2                !
 ! D24   D(9,3,4,7)            120.0            estimate D2E/DX2                !
 --------------------------------------------------------------------------------
 Trust Radius=3.00D-01 FncErr=1.00D-07 GrdErr=1.00D-07
 Number of steps in this run=     67 maximum allowed number of steps=    100.
 GradGradGradGradGradGradGradGradGradGradGradGradGradGradGradGradGradGrad

 Leave Link  103 at Wed Apr 29 12:59:53 2026, MaxMem=    33554432 cpu:         0.0
 (Enter /opt/g09/g09/l202.exe)
                          Input orientation:                          
 ---------------------------------------------------------------------
 Center     Atomic      Atomic             Coordinates (Angstroms)
 Number     Number       Type             X           Y           Z
 ---------------------------------------------------------------------
      1          6           0        0.000000    0.000000    0.000000
      2          6           0        0.000000    0.000000    1.500000
      3          6           0        1.414214    0.000000    2.000000
      4          7           0        2.102464    1.192085    1.513333
      5          1           0        2.426162    1.752746    2.314444
      6          1           0        2.911709    0.911755    0.941111
      7          1           0        1.455069    1.752746    0.941111
      8          1           0        1.414214    0.000000    3.070000
      9          1           0        1.918616   -0.873651    1.643333
     10          1           0       -0.504403    0.873651    1.856667
     11          1           0       -0.504403   -0.873651    1.856667
     12          8           0       -1.073872    0.000000   -0.620000
     13          8           0        1.195115    0.000000   -0.690000
 ---------------------------------------------------------------------
                    Distance matrix (angstroms):
                    1          2          3          4          5
     1  C    0.000000
     2  C    1.500000   0.000000
     3  C    2.449490   1.500000   0.000000
     4  N    2.851596   2.416940   1.460000   0.000000
     5  H    3.783521   3.101887   2.048178   1.030000   0.000000
     6  H    3.192966   3.101887   2.048178   1.030000   1.681983
     7  H    2.464758   2.345570   2.048178   1.030000   1.681983
     8  H    3.380074   2.113031   1.070000   2.077972   2.160329
     9  H    2.672995   2.113031   1.070000   2.077972   2.757890
    10  H    2.113031   1.070000   2.113031   2.648591   3.093635
    11  H    2.113031   1.070000   2.113031   3.343785   3.961784
    12  O    1.240000   2.376468   3.613166   4.007653   4.892169
    13  O    1.380000   2.494875   2.698908   2.664400   3.689754
                    6          7          8          9         10
     6  H    0.000000
     7  H    1.681983   0.000000
     8  H    2.757890   2.757890   0.000000
     9  H    2.160329   2.757890   1.747303   0.000000
    10  H    3.536879   2.334647   2.432393   2.994929   0.000000
    11  H    3.961784   3.402313   2.432393   2.432393   1.747303
    12  O    4.376438   3.450322   4.450468   3.852393   2.687274
    13  O    2.537423   2.408364   3.766378   2.594449   3.183887
                   11         12         13
    11  H    0.000000
    12  O    2.687274   0.000000
    13  O    3.183887   2.270066   0.000000
 Stoichiometry    C3H7NO2
 Framework group  C1[X(C3H7NO2)]
 Deg. of freedom    33
 Full point group                 C1      NOp   1
 Largest Abelian subgroup         C1      NOp   1
 Largest concise Abelian subgroup C1      NOp   1
                         Standard orientation:                         
 ---------------------------------------------------------------------
 Center     Atomic      Atomic             Coordinates (Angstroms)
 Number     Number       Type             X           Y           Z
 ---------------------------------------------------------------------
      1          6           0        1.017444    0.023841    0.023623
      2          6           0        0.007555   -1.085183    0.009882
      3          6           0       -1.324488   -0.553930    0.449694
      4          7           0       -1.751266    0.504221   -0.461226
      5          1           0       -2.645446    0.240361   -0.899084
      6          1           0       -1.872116    1.381710    0.064425
      7          1           0       -1.037320    0.637097   -1.191653
      8          1           0       -2.044875   -1.345034    0.439892
      9          1           0       -1.241514   -0.159361    1.440820
     10          1           0       -0.075419   -1.479752   -0.981244
     11          1           0        0.320331   -1.860678    0.677474
     12          8           0        2.190723   -0.201874   -0.308143
     13          8           0        0.640796    1.295342    0.405488
 ---------------------------------------------------------------------
 Rotational constants (GHZ):      6.8070112      2.6325195      2.1480036
 Leave Link  202 at Wed Apr 29 12:59:53 2026, MaxMem=    33554432 cpu:         0.0
 (Enter /opt/g09/g09/l301.exe)
 Standard basis: def2SVP (5D, 7F)
 Ernie: Thresh=  0.10000D-02 Tol=  0.10000D-05 Strict=F.
 AO basis set in the form of general basis input (Overlap normalization):
      1 0
 S   5 1.00       0.000000000000
      0.1238401694D+04  0.5517365048D-02
      0.1862900499D+03  0.4108882856D-01
      0.4225117635D+02  0.1822538213D+00
      0.1167655793D+02  0.4682845944D+00
      0.3593050648D+01  0.4457581734D+00
 S   1 1.00       0.000000000000
      0.4024514736D+00  0.1000000000D+01
 S   1 1.00       0.000000000000
      0.1309018267D+00  0.1000000000D+01
 P   3 1.00       0.000000000000
      0.9468097062D+01  0.5688833201D-01
      0.2010354514D+01  0.3129405934D+00
      0.5477100471D+00  0.7606501651D+00
 P   1 1.00       0.000000000000
      0.1526861379D+00  0.1000000000D+01
 D   1 1.00       0.000000000000
      0.8000000000D+00  0.1000000000D+01
 ****
      2 0
 S   5 1.00       0.000000000000
      0.1238401694D+04  0.5517365048D-02
      0.1862900499D+03  0.4108882856D-01
      0.4225117635D+02  0.1822538213D+00
      0.1167655793D+02  0.4682845944D+00
      0.3593050648D+01  0.4457581734D+00
 S   1 1.00       0.000000000000
      0.4024514736D+00  0.1000000000D+01
 S   1 1.00       0.000000000000
      0.1309018267D+00  0.1000000000D+01
 P   3 1.00       0.000000000000
      0.9468097062D+01  0.5688833201D-01
      0.2010354514D+01  0.3129405934D+00
      0.5477100471D+00  0.7606501651D+00
 P   1 1.00       0.000000000000
      0.1526861379D+00  0.1000000000D+01
 D   1 1.00       0.000000000000
      0.8000000000D+00  0.1000000000D+01
 ****
      3 0
 S   5 1.00       0.000000000000
      0.1238401694D+04  0.5517365048D-02
      0.1862900499D+03  0.4108882856D-01
      0.4225117635D+02  0.1822538213D+00
      0.1167655793D+02  0.4682845944D+00
      0.3593050648D+01  0.4457581734D+00
 S   1 1.00       0.000000000000
      0.4024514736D+00  0.1000000000D+01
 S   1 1.00       0.000000000000
      0.1309018267D+00  0.1000000000D+01
 P   3 1.00       0.000000000000
      0.9468097062D+01  0.5688833201D-01
      0.2010354514D+01  0.3129405934D+00
      0.5477100471D+00  0.7606501651D+00
 P   1 1.00       0.000000000000
      0.1526861379D+00  0.1000000000D+01
 D   1 1.00       0.000000000000
      0.8000000000D+00  0.1000000000D+01
 ****
      4 0
 S   5 1.00       0.000000000000
      0.1712841585D+04 -0.5447799580D-02
      0.2576481268D+03 -0.4062717463D-01
      0.5845824585D+02 -0.1811196225D+00
      0.1619836791D+02 -0.4684397556D+00
      0.5005260081D+01 -0.4461684629D+00
 S   1 1.00       0.000000000000
      0.5873185657D+00  0.1000000000D+01
 S   1 1.00       0.000000000000
      0.1876459225D+00  0.1000000000D+01
 P   3 1.00       0.000000000000
      0.1357147023D+02 -0.5884811697D-01
      0.2925737287D+01 -0.3202462476D+00
      0.7992775075D+00 -0.7532822652D+00
 P   1 1.00       0.000000000000
      0.2195434803D+00  0.1000000000D+01
 D   1 1.00       0.000000000000
      0.1000000000D+01  0.1000000000D+01
 ****
      5 0
 S   3 1.00       0.000000000000
      0.1301070100D+02  0.3348548481D-01
      0.1962257200D+01  0.2347218709D+00
      0.4445379600D+00  0.8137702853D+00
 S   1 1.00       0.000000000000
      0.1219496200D+00  0.1000000000D+01
 P   1 1.00       0.000000000000
      0.8000000000D+00  0.1000000000D+01
 ****
      6 0
 S   3 1.00       0.000000000000
      0.1301070100D+02  0.3348548481D-01
      0.1962257200D+01  0.2347218709D+00
      0.4445379600D+00  0.8137702853D+00
 S   1 1.00       0.000000000000
      0.1219496200D+00  0.1000000000D+01
 P   1 1.00       0.000000000000
      0.8000000000D+00  0.1000000000D+01
 ****
      7 0
 S   3 1.00       0.000000000000
      0.1301070100D+02  0.3348548481D-01
      0.1962257200D+01  0.2347218709D+00
      0.4445379600D+00  0.8137702853D+00
 S   1 1.00       0.000000000000
      0.1219496200D+00  0.1000000000D+01
 P   1 1.00       0.000000000000
      0.8000000000D+00  0.1000000000D+01
 ****
      8 0
 S   3 1.00       0.000000000000
      0.1301070100D+02  0.3348548481D-01
      0.1962257200D+01  0.2347218709D+00
      0.4445379600D+00  0.8137702853D+00
 S   1 1.00       0.000000000000
      0.1219496200D+00  0.1000000000D+01
 P   1 1.00       0.000000000000
      0.8000000000D+00  0.1000000000D+01
 ****
      9 0
 S   3 1.00       0.000000000000
      0.1301070100D+02  0.3348548481D-01
      0.1962257200D+01  0.2347218709D+00
      0.4445379600D+00  0.8137702853D+00
 S   1 1.00       0.000000000000
      0.1219496200D+00  0.1000000000D+01
 P   1 1.00       0.000000000000
      0.8000000000D+00  0.1000000000D+01
 ****
     10 0
 S   3 1.00       0.000000000000
      0.1301070100D+02  0.3348548481D-01
      0.1962257200D+01  0.2347218709D+00
      0.4445379600D+00  0.8137702853D+00
 S   1 1.00       0.000000000000
      0.1219496200D+00  0.1000000000D+01
 P   1 1.00       0.000000000000
      0.8000000000D+00  0.1000000000D+01
 ****
     11 0
 S   3 1.00       0.000000000000
      0.1301070100D+02  0.3348548481D-01
      0.1962257200D+01  0.2347218709D+00
      0.4445379600D+00  0.8137702853D+00
 S   1 1.00       0.000000000000
      0.1219496200D+00  0.1000000000D+01
 P   1 1.00       0.000000000000
      0.8000000000D+00  0.1000000000D+01
 ****
     12 0
 S   5 1.00       0.000000000000
      0.2266176779D+04 -0.5389350392D-02
      0.3408701019D+03 -0.4023472139D-01
      0.7736313517D+02 -0.1800818421D+00
      0.2147964494D+02 -0.4682885766D+00
      0.6658943312D+01 -0.4469261716D+00
 S   1 1.00       0.000000000000
      0.8097597567D+00  0.1000000000D+01
 S   1 1.00       0.000000000000
      0.2553077223D+00  0.1000000000D+01
 P   3 1.00       0.000000000000
      0.1772150432D+02  0.6263024876D-01
      0.3863550544D+01  0.3333113848D+00
      0.1048092088D+01  0.7414863831D+00
 P   1 1.00       0.000000000000
      0.2764154441D+00  0.1000000000D+01
 D   1 1.00       0.000000000000
      0.1200000000D+01  0.1000000000D+01
 ****
     13 0
 S   5 1.00       0.000000000000
      0.2266176779D+04 -0.5389350392D-02
      0.3408701019D+03 -0.4023472139D-01
      0.7736313517D+02 -0.1800818421D+00
      0.2147964494D+02 -0.4682885766D+00
      0.6658943312D+01 -0.4469261716D+00
 S   1 1.00       0.000000000000
      0.8097597567D+00  0.1000000000D+01
 S   1 1.00       0.000000000000
      0.2553077223D+00  0.1000000000D+01
 P   3 1.00       0.000000000000
      0.1772150432D+02  0.6263024876D-01
      0.3863550544D+01  0.3333113848D+00
      0.1048092088D+01  0.7414863831D+00
 P   1 1.00       0.000000000000
      0.2764154441D+00  0.1000000000D+01
 D   1 1.00       0.000000000000
      0.1200000000D+01  0.1000000000D+01
 ****

 There are   125 symmetry adapted cartesian basis functions of A   symmetry.
 There are   119 symmetry adapted basis functions of A   symmetry.
   119 basis functions,   199 primitive gaussians,   125 cartesian basis functions
    24 alpha electrons       24 beta electrons
       nuclear repulsion energy       248.9286823471 Hartrees.
 IExCor=    0 DFT=F Ex=HF Corr=None ExCW=0 ScaHFX=  1.000000
 ScaDFX=  1.000000  1.000000  1.000000  1.000000 ScalE2=  1.000000  1.000000
 IRadAn=      0 IRanWt=     -1 IRanGd=            0 ICorTp=0 IEmpDi=  4
 NAtoms=   13 NActive=   13 NUniq=   13 SFac= 1.00D+00 NAtFMM=   60 NAOKFM=F Big=F
 Integral buffers will be    131072 words long.
 Raffenetti 1 integral format.
 Two-electron integral symmetry is turned on.
 Leave Link  301 at Wed Apr 29 12:59:53 2026, MaxMem=    33554432 cpu:         0.0
 (Enter /opt/g09/g09/l302.exe)
 NPDir=0 NMtPBC=     1 NCelOv=     1 NCel=       1 NClECP=     1 NCelD=      1
         NCelK=      1 NCelE2=     1 NClLst=     1 CellRange=     0.0.
 One-electron integrals computed using PRISM.
   1 Symmetry operations used in ECPInt.
 ECPInt:  NShTT=    1653 NPrTT=    5877 LenC2=    1647 LenP2D=    4959.
 LDataN:  DoStor=T MaxTD1= 4 Len=   56
 NBasis=   119 RedAO= T EigKep=  1.58D-03  NBF=   119
 NBsUse=   119 1.00D-06 EigRej= -1.00D+00 NBFU=   119
 Leave Link  302 at Wed Apr 29 12:59:54 2026, MaxMem=    33554432 cpu:         0.1
 (Enter /opt/g09/g09/l303.exe)
 DipDrv:  MaxL=1.
 Leave Link  303 at Wed Apr 29 12:59:54 2026, MaxMem=    33554432 cpu:         0.0
 (Enter /opt/g09/g09/l401.exe)
 ExpMin= 1.22D-01 ExpMax= 2.27D+03 ExpMxC= 3.41D+02 IAcc=1 IRadAn=         1 AccDes= 0.00D+00
 Harris functional with IExCor=  205 and IRadAn=       1 diagonalized for initial guess.
 HarFok:  IExCor=  205 AccDes= 0.00D+00 IRadAn=         1 IDoV= 1 UseB2=F ITyADJ=14
 ICtDFT=  3500011 ScaDFX=  1.000000  1.000000  1.000000  1.000000
 FoFCou: FMM=F IPFlag=           0 FMFlag=      100000 FMFlg1=           0
         NFxFlg=           0 DoJE=T BraDBF=F KetDBF=T FulRan=T
         wScrn=  0.000000 ICntrl=     500 IOpCl=  0 I1Cent=   200000004 NGrid=           0
         NMat0=    1 NMatS0=      1 NMatT0=    0 NMatD0=    1 NMtDS0=    0 NMtDT0=    0
 Petite list used in FoFCou.
 Harris En= -321.993546773619    
 JPrj=0 DoOrth=F DoCkMO=F.
 Leave Link  401 at Wed Apr 29 12:59:54 2026, MaxMem=    33554432 cpu:         0.1
 (Enter /opt/g09/g09/l502.exe)
 Closed shell SCF:
 Using DIIS extrapolation, IDIIS=  1040.
 Integral symmetry usage will be decided dynamically.
 Keep R1 ints in memory in canonical form, NReq=26560622.
 IVT=       67127 IEndB=       67127 NGot=    33554432 MDV=     7993936
 LenX=     7993936 LenY=     7977870
 Requested convergence on RMS density matrix=1.00D-08 within 128 cycles.
 Requested convergence on MAX density matrix=1.00D-06.
 Requested convergence on             energy=1.00D-06.
 No special actions if energy rises.
 FoFCou: FMM=F IPFlag=           0 FMFlag=           0 FMFlg1=           0
         NFxFlg=           0 DoJE=F BraDBF=F KetDBF=F FulRan=T
         wScrn=  0.000000 ICntrl=     600 IOpCl=  0 I1Cent=           0 NGrid=           0
         NMat0=    1 NMatS0=   7140 NMatT0=    0 NMatD0=    1 NMtDS0=    0 NMtDT0=    0
 Symmetry not used in FoFCou.

 Cycle   1  Pass 1  IDiag  1:
 E= -321.264908997729    
 DIIS: error= 4.98D-02 at cycle   1 NSaved=   1.
 NSaved= 1 IEnMin= 1 EnMin= -321.264908997729     IErMin= 1 ErrMin= 4.98D-02
 ErrMax= 4.98D-02  0.00D+00 EMaxC= 1.00D-01 BMatC= 3.67D-01 BMatP= 3.67D-01
 IDIUse=3 WtCom= 5.02D-01 WtEn= 4.98D-01
 Coeff-Com:  0.100D+01
 Coeff-En:   0.100D+01
 Coeff:      0.100D+01
 Gap=     0.515 Goal=   None    Shift=    0.000
 GapD=    0.515 DampG=2.000 DampE=0.500 DampFc=1.0000 IDamp=-1.
 RMSDP=7.96D-03 MaxDP=2.98D-01              OVMax= 1.24D-01

 Cycle   2  Pass 1  IDiag  1:
 E= -321.472423832832     Delta-E=       -0.207514835103 Rises=F Damp=F
 DIIS: error= 2.37D-02 at cycle   2 NSaved=   2.
 NSaved= 2 IEnMin= 2 EnMin= -321.472423832832     IErMin= 2 ErrMin= 2.37D-02
 ErrMax= 2.37D-02  0.00D+00 EMaxC= 1.00D-01 BMatC= 7.36D-02 BMatP= 3.67D-01
 IDIUse=3 WtCom= 7.63D-01 WtEn= 2.37D-01
 Coeff-Com:  0.271D+00 0.729D+00
 Coeff-En:   0.000D+00 0.100D+01
 Coeff:      0.207D+00 0.793D+00
 Gap=     0.439 Goal=   None    Shift=    0.000
 RMSDP=3.83D-03 MaxDP=1.92D-01 DE=-2.08D-01 OVMax= 6.34D-02

 Cycle   3  Pass 1  IDiag  1:
 E= -321.522319117456     Delta-E=       -0.049895284624 Rises=F Damp=F
 DIIS: error= 8.00D-03 at cycle   3 NSaved=   3.
 NSaved= 3 IEnMin= 3 EnMin= -321.522319117456     IErMin= 3 ErrMin= 8.00D-03
 ErrMax= 8.00D-03  0.00D+00 EMaxC= 1.00D-01 BMatC= 7.75D-03 BMatP= 7.36D-02
 IDIUse=3 WtCom= 9.20D-01 WtEn= 8.00D-02
 Coeff-Com: -0.101D-01 0.218D+00 0.792D+00
 Coeff-En:   0.000D+00 0.000D+00 0.100D+01
 Coeff:     -0.926D-02 0.201D+00 0.809D+00
 Gap=     0.408 Goal=   None    Shift=    0.000
 RMSDP=7.80D-04 MaxDP=2.00D-02 DE=-4.99D-02 OVMax= 2.16D-02

 Cycle   4  Pass 1  IDiag  1:
 E= -321.527856627768     Delta-E=       -0.005537510312 Rises=F Damp=F
 DIIS: error= 1.48D-03 at cycle   4 NSaved=   4.
 NSaved= 4 IEnMin= 4 EnMin= -321.527856627768     IErMin= 4 ErrMin= 1.48D-03
 ErrMax= 1.48D-03  0.00D+00 EMaxC= 1.00D-01 BMatC= 4.30D-04 BMatP= 7.75D-03
 IDIUse=3 WtCom= 9.85D-01 WtEn= 1.48D-02
 Coeff-Com: -0.139D-01 0.201D-01 0.238D+00 0.756D+00
 Coeff-En:   0.000D+00 0.000D+00 0.000D+00 0.100D+01
 Coeff:     -0.137D-01 0.198D-01 0.235D+00 0.759D+00
 Gap=     0.411 Goal=   None    Shift=    0.000
 RMSDP=2.26D-04 MaxDP=5.38D-03 DE=-5.54D-03 OVMax= 5.61D-03

 Cycle   5  Pass 1  IDiag  1:
 E= -321.528304656764     Delta-E=       -0.000448028996 Rises=F Damp=F
 DIIS: error= 4.73D-04 at cycle   5 NSaved=   5.
 NSaved= 5 IEnMin= 5 EnMin= -321.528304656764     IErMin= 5 ErrMin= 4.73D-04
 ErrMax= 4.73D-04  0.00D+00 EMaxC= 1.00D-01 BMatC= 2.63D-05 BMatP= 4.30D-04
 IDIUse=3 WtCom= 9.95D-01 WtEn= 4.73D-03
 Coeff-Com:  0.194D-02-0.201D-01-0.968D-01-0.493D-01 0.116D+01
 Coeff-En:   0.000D+00 0.000D+00 0.000D+00 0.000D+00 0.100D+01
 Coeff:      0.194D-02-0.200D-01-0.964D-01-0.490D-01 0.116D+01
 Gap=     0.411 Goal=   None    Shift=    0.000
 RMSDP=1.14D-04 MaxDP=1.96D-03 DE=-4.48D-04 OVMax= 2.52D-03

 Cycle   6  Pass 1  IDiag  1:
 E= -321.528358602972     Delta-E=       -0.000053946208 Rises=F Damp=F
 DIIS: error= 2.28D-04 at cycle   6 NSaved=   6.
 NSaved= 6 IEnMin= 6 EnMin= -321.528358602972     IErMin= 6 ErrMin= 2.28D-04
 ErrMax= 2.28D-04  0.00D+00 EMaxC= 1.00D-01 BMatC= 3.57D-06 BMatP= 2.63D-05
 IDIUse=3 WtCom= 9.98D-01 WtEn= 2.28D-03
 Coeff-Com:  0.161D-02-0.686D-02-0.445D-01-0.712D-01 0.268D+00 0.853D+00
 Coeff-En:   0.000D+00 0.000D+00 0.000D+00 0.000D+00 0.000D+00 0.100D+01
 Coeff:      0.160D-02-0.684D-02-0.444D-01-0.711D-01 0.267D+00 0.853D+00
 Gap=     0.412 Goal=   None    Shift=    0.000
 RMSDP=3.12D-05 MaxDP=6.42D-04 DE=-5.39D-05 OVMax= 1.62D-03

 Cycle   7  Pass 1  IDiag  1:
 E= -321.528365956308     Delta-E=       -0.000007353336 Rises=F Damp=F
 DIIS: error= 7.63D-05 at cycle   7 NSaved=   7.
 NSaved= 7 IEnMin= 7 EnMin= -321.528365956308     IErMin= 7 ErrMin= 7.63D-05
 ErrMax= 7.63D-05  0.00D+00 EMaxC= 1.00D-01 BMatC= 1.01D-06 BMatP= 3.57D-06
 IDIUse=1 WtCom= 1.00D+00 WtEn= 0.00D+00
 Coeff-Com: -0.132D-03 0.289D-02 0.133D-01 0.331D-02-0.214D+00 0.198D+00
 Coeff-Com:  0.997D+00
 Coeff:     -0.132D-03 0.289D-02 0.133D-01 0.331D-02-0.214D+00 0.198D+00
 Coeff:      0.997D+00
 Gap=     0.412 Goal=   None    Shift=    0.000
 RMSDP=2.17D-05 MaxDP=3.40D-04 DE=-7.35D-06 OVMax= 6.43D-04

 Cycle   8  Pass 1  IDiag  1:
 E= -321.528368108925     Delta-E=       -0.000002152617 Rises=F Damp=F
 DIIS: error= 3.76D-05 at cycle   8 NSaved=   8.
 NSaved= 8 IEnMin= 8 EnMin= -321.528368108925     IErMin= 8 ErrMin= 3.76D-05
 ErrMax= 3.76D-05  0.00D+00 EMaxC= 1.00D-01 BMatC= 9.77D-08 BMatP= 1.01D-06
 IDIUse=1 WtCom= 1.00D+00 WtEn= 0.00D+00
 Coeff-Com: -0.268D-03 0.115D-02 0.735D-02 0.135D-01-0.444D-01-0.105D+00
 Coeff-Com: -0.158D+00 0.129D+01
 Coeff:     -0.268D-03 0.115D-02 0.735D-02 0.135D-01-0.444D-01-0.105D+00
 Coeff:     -0.158D+00 0.129D+01
 Gap=     0.412 Goal=   None    Shift=    0.000
 RMSDP=1.05D-05 MaxDP=1.87D-04 DE=-2.15D-06 OVMax= 5.02D-04

 Cycle   9  Pass 1  IDiag  1:
 E= -321.528368523403     Delta-E=       -0.000000414478 Rises=F Damp=F
 DIIS: error= 8.88D-06 at cycle   9 NSaved=   9.
 NSaved= 9 IEnMin= 9 EnMin= -321.528368523403     IErMin= 9 ErrMin= 8.88D-06
 ErrMax= 8.88D-06  0.00D+00 EMaxC= 1.00D-01 BMatC= 1.57D-08 BMatP= 9.77D-08
 IDIUse=1 WtCom= 1.00D+00 WtEn= 0.00D+00
 Coeff-Com:  0.705D-05-0.329D-03-0.158D-02 0.246D-03 0.237D-01-0.914D-02
 Coeff-Com: -0.165D+00 0.502D-01 0.110D+01
 Coeff:      0.705D-05-0.329D-03-0.158D-02 0.246D-03 0.237D-01-0.914D-02
 Coeff:     -0.165D+00 0.502D-01 0.110D+01
 Gap=     0.412 Goal=   None    Shift=    0.000
 RMSDP=3.59D-06 MaxDP=5.69D-05 DE=-4.14D-07 OVMax= 1.54D-04

 Cycle  10  Pass 1  IDiag  1:
 E= -321.528368568906     Delta-E=       -0.000000045503 Rises=F Damp=F
 DIIS: error= 3.38D-06 at cycle  10 NSaved=  10.
 NSaved=10 IEnMin=10 EnMin= -321.528368568906     IErMin=10 ErrMin= 3.38D-06
 ErrMax= 3.38D-06  0.00D+00 EMaxC= 1.00D-01 BMatC= 1.68D-09 BMatP= 1.57D-08
 IDIUse=1 WtCom= 1.00D+00 WtEn= 0.00D+00
 Coeff-Com:  0.414D-04-0.194D-03-0.119D-02-0.188D-02 0.673D-02 0.211D-01
 Coeff-Com:  0.636D-02-0.176D+00 0.146D-01 0.113D+01
 Coeff:      0.414D-04-0.194D-03-0.119D-02-0.188D-02 0.673D-02 0.211D-01
 Coeff:      0.636D-02-0.176D+00 0.146D-01 0.113D+01
 Gap=     0.412 Goal=   None    Shift=    0.000
 RMSDP=1.36D-06 MaxDP=2.52D-05 DE=-4.55D-08 OVMax= 5.47D-05

 Cycle  11  Pass 1  IDiag  1:
 E= -321.528368574035     Delta-E=       -0.000000005130 Rises=F Damp=F
 DIIS: error= 7.54D-07 at cycle  11 NSaved=  11.
 NSaved=11 IEnMin=11 EnMin= -321.528368574035     IErMin=11 ErrMin= 7.54D-07
 ErrMax= 7.54D-07  0.00D+00 EMaxC= 1.00D-01 BMatC= 1.35D-10 BMatP= 1.68D-09
 IDIUse=1 WtCom= 1.00D+00 WtEn= 0.00D+00
 Coeff-Com: -0.156D-05 0.305D-04 0.189D-03 0.738D-04-0.255D-02 0.126D-02
 Coeff-Com:  0.115D-01 0.706D-02-0.105D+00-0.687D-01 0.116D+01
 Coeff:     -0.156D-05 0.305D-04 0.189D-03 0.738D-04-0.255D-02 0.126D-02
 Coeff:      0.115D-01 0.706D-02-0.105D+00-0.687D-01 0.116D+01
 Gap=     0.412 Goal=   None    Shift=    0.000
 RMSDP=4.33D-07 MaxDP=8.99D-06 DE=-5.13D-09 OVMax= 1.26D-05

 Cycle  12  Pass 1  IDiag  1:
 E= -321.528368574421     Delta-E=       -0.000000000385 Rises=F Damp=F
 DIIS: error= 2.24D-07 at cycle  12 NSaved=  12.
 NSaved=12 IEnMin=12 EnMin= -321.528368574421     IErMin=12 ErrMin= 2.24D-07
 ErrMax= 2.24D-07  0.00D+00 EMaxC= 1.00D-01 BMatC= 1.12D-11 BMatP= 1.35D-10
 IDIUse=1 WtCom= 1.00D+00 WtEn= 0.00D+00
 Coeff-Com: -0.367D-05 0.173D-04 0.117D-03 0.171D-03-0.722D-03-0.162D-02
 Coeff-Com: -0.103D-02 0.175D-01-0.407D-02-0.112D+00 0.338D-01 0.107D+01
 Coeff:     -0.367D-05 0.173D-04 0.117D-03 0.171D-03-0.722D-03-0.162D-02
 Coeff:     -0.103D-02 0.175D-01-0.407D-02-0.112D+00 0.338D-01 0.107D+01
 Gap=     0.412 Goal=   None    Shift=    0.000
 RMSDP=1.22D-07 MaxDP=2.68D-06 DE=-3.85D-10 OVMax= 2.56D-06

 Cycle  13  Pass 1  IDiag  1:
 E= -321.528368574447     Delta-E=       -0.000000000027 Rises=F Damp=F
 DIIS: error= 6.48D-08 at cycle  13 NSaved=  13.
 NSaved=13 IEnMin=13 EnMin= -321.528368574447     IErMin=13 ErrMin= 6.48D-08
 ErrMax= 6.48D-08  0.00D+00 EMaxC= 1.00D-01 BMatC= 9.41D-13 BMatP= 1.12D-11
 IDIUse=1 WtCom= 1.00D+00 WtEn= 0.00D+00
 Coeff-Com:  0.200D-06-0.259D-05-0.144D-04-0.110D-04 0.195D-03-0.385D-05
 Coeff-Com: -0.102D-02-0.713D-03 0.863D-02 0.738D-02-0.101D+00 0.701D-02
 Coeff-Com:  0.108D+01
 Coeff:      0.200D-06-0.259D-05-0.144D-04-0.110D-04 0.195D-03-0.385D-05
 Coeff:     -0.102D-02-0.713D-03 0.863D-02 0.738D-02-0.101D+00 0.701D-02
 Coeff:      0.108D+01
 Gap=     0.412 Goal=   None    Shift=    0.000
 RMSDP=3.18D-08 MaxDP=6.71D-07 DE=-2.66D-11 OVMax= 5.48D-07

 Cycle  14  Pass 1  IDiag  1:
 E= -321.528368574453     Delta-E=       -0.000000000006 Rises=F Damp=F
 DIIS: error= 1.85D-08 at cycle  14 NSaved=  14.
 NSaved=14 IEnMin=14 EnMin= -321.528368574453     IErMin=14 ErrMin= 1.85D-08
 ErrMax= 1.85D-08  0.00D+00 EMaxC= 1.00D-01 BMatC= 8.48D-14 BMatP= 9.41D-13
 IDIUse=1 WtCom= 1.00D+00 WtEn= 0.00D+00
 Coeff-Com:  0.294D-06-0.137D-05-0.858D-05-0.157D-04 0.422D-04 0.174D-03
 Coeff-Com:  0.199D-03-0.158D-02-0.849D-03 0.107D-01 0.689D-02-0.104D+00
 Coeff-Com: -0.131D+00 0.122D+01
 Coeff:      0.294D-06-0.137D-05-0.858D-05-0.157D-04 0.422D-04 0.174D-03
 Coeff:      0.199D-03-0.158D-02-0.849D-03 0.107D-01 0.689D-02-0.104D+00
 Coeff:     -0.131D+00 0.122D+01
 Gap=     0.412 Goal=   None    Shift=    0.000
 RMSDP=1.11D-08 MaxDP=3.29D-07 DE=-5.91D-12 OVMax= 2.59D-07

 Cycle  15  Pass 1  IDiag  1:
 E= -321.528368574452     Delta-E=        0.000000000002 Rises=F Damp=F
 DIIS: error= 5.13D-09 at cycle  15 NSaved=  15.
 NSaved=15 IEnMin=14 EnMin= -321.528368574453     IErMin=15 ErrMin= 5.13D-09
 ErrMax= 5.13D-09  0.00D+00 EMaxC= 1.00D-01 BMatC= 6.10D-15 BMatP= 8.48D-14
 IDIUse=1 WtCom= 1.00D+00 WtEn= 0.00D+00
 Coeff-Com: -0.661D-07 0.400D-06 0.267D-05 0.275D-05-0.220D-04-0.197D-04
 Coeff-Com:  0.383D-04 0.305D-03-0.578D-03-0.208D-02 0.652D-02 0.148D-01
 Coeff-Com: -0.614D-01-0.168D+00 0.121D+01
 Coeff:     -0.661D-07 0.400D-06 0.267D-05 0.275D-05-0.220D-04-0.197D-04
 Coeff:      0.383D-04 0.305D-03-0.578D-03-0.208D-02 0.652D-02 0.148D-01
 Coeff:     -0.614D-01-0.168D+00 0.121D+01
 Gap=     0.412 Goal=   None    Shift=    0.000
 RMSDP=2.54D-09 MaxDP=9.13D-08 DE= 1.82D-12 OVMax= 7.40D-08

 SCF Done:  E(RHF) =  -321.528368574     A.U. after   15 cycles
            NFock= 15  Conv=0.25D-08     -V/T= 2.0040
 KE= 3.202602171186D+02 PE=-1.253865923672D+03 EE= 3.631486556324D+02
 Leave Link  502 at Wed Apr 29 12:59:55 2026, MaxMem=    33554432 cpu:         0.7
 (Enter /opt/g09/g09/l601.exe)
 Copying SCF densities to generalized density rwf, IOpCl= 0 IROHF=0.

 **********************************************************************

            Population analysis using the SCF density.

 **********************************************************************

 Orbital symmetries:
       Occupied  (A) (A) (A) (A) (A) (A) (A) (A) (A) (A) (A) (A)
                 (A) (A) (A) (A) (A) (A) (A) (A) (A) (A) (A) (A)
       Virtual   (A) (A) (A) (A) (A) (A) (A) (A) (A) (A) (A) (A)
                 (A) (A) (A) (A) (A) (A) (A) (A) (A) (A) (A) (A)
                 (A) (A) (A) (A) (A) (A) (A) (A) (A) (A) (A) (A)
                 (A) (A) (A) (A) (A) (A) (A) (A) (A) (A) (A) (A)
                 (A) (A) (A) (A) (A) (A) (A) (A) (A) (A) (A) (A)
                 (A) (A) (A) (A) (A) (A) (A) (A) (A) (A) (A) (A)
                 (A) (A) (A) (A) (A) (A) (A) (A) (A) (A) (A) (A)
                 (A) (A) (A) (A) (A) (A) (A) (A) (A) (A) (A)
 The electronic state is 1-A.
 Alpha  occ. eigenvalues --  -20.43525 -20.42209 -15.74665 -11.31908 -11.29492
 Alpha  occ. eigenvalues --  -11.24362  -1.35916  -1.28342  -1.15191  -1.07172
 Alpha  occ. eigenvalues --   -0.92179  -0.82971  -0.81798  -0.72844  -0.69047
 Alpha  occ. eigenvalues --   -0.62572  -0.59622  -0.57701  -0.55279  -0.50287
 Alpha  occ. eigenvalues --   -0.46325  -0.35903  -0.33891  -0.32218
 Alpha virt. eigenvalues --    0.08962   0.14926   0.16899   0.17562   0.20763
 Alpha virt. eigenvalues --    0.23980   0.25312   0.30054   0.32954   0.35825
 Alpha virt. eigenvalues --    0.41712   0.48974   0.52974   0.56803   0.58351
 Alpha virt. eigenvalues --    0.67489   0.70079   0.72605   0.76740   0.79022
 Alpha virt. eigenvalues --    0.80774   0.83006   0.84232   0.85619   0.86785
 Alpha virt. eigenvalues --    0.87097   0.89566   0.91698   0.93012   0.96282
 Alpha virt. eigenvalues --    0.96756   1.00072   1.02551   1.03741   1.17833
 Alpha virt. eigenvalues --    1.25228   1.32120   1.34430   1.38857   1.42858
 Alpha virt. eigenvalues --    1.46147   1.50496   1.56139   1.58458   1.62003
 Alpha virt. eigenvalues --    1.67933   1.71872   1.77351   1.81984   1.84200
 Alpha virt. eigenvalues --    1.88173   1.94509   1.97913   2.02208   2.02916
 Alpha virt. eigenvalues --    2.04445   2.05571   2.12530   2.13983   2.17448
 Alpha virt. eigenvalues --    2.19448   2.23136   2.23730   2.28482   2.33781
 Alpha virt. eigenvalues --    2.34741   2.41592   2.47089   2.54680   2.58284
 Alpha virt. eigenvalues --    2.64737   2.66550   2.70663   2.82005   2.84565
 Alpha virt. eigenvalues --    2.92799   3.08320   3.11060   3.12929   3.14386
 Alpha virt. eigenvalues --    3.15294   3.17033   3.18232   3.24607   3.32506
 Alpha virt. eigenvalues --    3.38517   3.43002   3.46494   3.49228   3.57015
 Alpha virt. eigenvalues --    3.60977   3.63802   3.78897   4.04234   4.11239
     Molecular Orbital Coefficients:
                           1         2         3         4         5
                           O         O         O         O         O
     Eigenvalues --   -20.43525 -20.42209 -15.74665 -11.31908 -11.29492
   1 1   C  1S         -0.00013  -0.00005  -0.00002  -0.00004   0.99099
   2        2S         -0.00185  -0.00080   0.00009  -0.00059   0.03554
   3        3S         -0.00762  -0.00695   0.00262  -0.00131  -0.01046
   4        4PX         0.00040   0.00018  -0.00007   0.00000  -0.00001
   5        4PY         0.00003  -0.00035   0.00011  -0.00017  -0.00024
   6        4PZ        -0.00009  -0.00016   0.00000  -0.00003  -0.00021
   7        5PX        -0.01194   0.00453  -0.00094  -0.00088   0.00880
   8        5PY         0.00370  -0.01069  -0.00077   0.00079   0.00416
   9        5PZ         0.00375  -0.00333  -0.00033   0.00029  -0.00087
  10        6D 0       -0.00036  -0.00003  -0.00006  -0.00007  -0.00144
  11        6D+1       -0.00048  -0.00001  -0.00006  -0.00003  -0.00079
  12        6D-1        0.00010   0.00019   0.00004  -0.00003   0.00062
  13        6D+2        0.00078  -0.00036   0.00008   0.00017   0.00040
  14        6D-2       -0.00047  -0.00036  -0.00005   0.00007  -0.00024
  15 2   C  1S         -0.00003  -0.00003  -0.00005   0.00433   0.00605
  16        2S          0.00037  -0.00041   0.00082  -0.00102  -0.00024
  17        3S         -0.00147   0.00554  -0.00101   0.01056   0.00292
  18        4PX         0.00008   0.00010  -0.00022   0.00071  -0.00074
  19        4PY         0.00005   0.00021   0.00015  -0.00015  -0.00063
  20        4PZ         0.00000   0.00002  -0.00001  -0.00017  -0.00003
  21        5PX         0.00133  -0.00641  -0.00090  -0.00276   0.00226
  22        5PY        -0.00081   0.00297  -0.00117   0.00173   0.00070
  23        5PZ        -0.00059   0.00199   0.00102   0.00099   0.00028
  24        6D 0       -0.00010   0.00002  -0.00002   0.00020   0.00046
  25        6D+1       -0.00009   0.00010  -0.00007   0.00027   0.00001
  26        6D-1       -0.00007   0.00007   0.00011  -0.00013  -0.00006
  27        6D+2        0.00036  -0.00037   0.00005  -0.00040  -0.00002
  28        6D-2        0.00019  -0.00007   0.00002   0.00034  -0.00077
  29 3   C  1S         -0.00004  -0.00008  -0.00019   0.99051   0.00007
  30        2S          0.00111   0.00113   0.00078   0.03881  -0.00098
  31        3S         -0.00297  -0.01023  -0.01131  -0.03314   0.00412
  32        4PX         0.00024   0.00005   0.00004  -0.00054  -0.00007
  33        4PY         0.00005   0.00017   0.00008   0.00062  -0.00018
  34        4PZ         0.00002  -0.00006  -0.00015  -0.00041  -0.00006
  35        5PX        -0.00196  -0.00301   0.00087  -0.00390   0.00261
  36        5PY        -0.00280   0.00097  -0.00236   0.00024   0.00172
  37        5PZ         0.00011   0.00165   0.00231   0.00045  -0.00072
  38        6D 0        0.00003  -0.00009   0.00010   0.00000  -0.00007
  39        6D+1        0.00000  -0.00006   0.00024   0.00004  -0.00005
  40        6D-1        0.00000  -0.00006  -0.00066   0.00014  -0.00002
  41        6D+2       -0.00007  -0.00007  -0.00029  -0.00013   0.00020
  42        6D-2        0.00000   0.00025  -0.00033   0.00040   0.00015
  43 4   N  1S          0.00000   0.00004   0.99014  -0.00001  -0.00002
  44        2S         -0.00005   0.00022  -0.03778  -0.00014  -0.00019
  45        3S          0.00130   0.00143   0.02246   0.00168  -0.00118
  46        4PX        -0.00002  -0.00018  -0.00025   0.00009   0.00012
  47        4PY         0.00000  -0.00005   0.00019  -0.00035  -0.00005
  48        4PZ         0.00004  -0.00005  -0.00031   0.00026   0.00007
  49        5PX         0.00013  -0.00059   0.00182   0.00024   0.00015
  50        5PY        -0.00050  -0.00093  -0.00334   0.00051   0.00058
  51        5PZ         0.00089  -0.00003   0.00256  -0.00104   0.00040
  52        6D 0       -0.00001  -0.00002   0.00008  -0.00008   0.00004
  53        6D+1        0.00007   0.00018   0.00017  -0.00020  -0.00003
  54        6D-1        0.00000  -0.00002  -0.00061   0.00064   0.00000
  55        6D+2        0.00000   0.00010  -0.00029   0.00039  -0.00011
  56        6D-2       -0.00005   0.00002  -0.00029   0.00028   0.00000
  57 5   H  1S         -0.00002  -0.00049   0.00149   0.00024   0.00034
  58        2S         -0.00006  -0.00016  -0.00177   0.00062   0.00005
  59        3PX         0.00001  -0.00015   0.00194   0.00013   0.00005
  60        3PY         0.00005  -0.00005   0.00090  -0.00044   0.00001
  61        3PZ        -0.00012  -0.00008   0.00084   0.00037   0.00010
  62 6   H  1S         -0.00002   0.00051   0.00133   0.00064  -0.00024
  63        2S          0.00022  -0.00042  -0.00172   0.00047  -0.00086
  64        3PX         0.00007   0.00015   0.00010   0.00022  -0.00020
  65        3PY        -0.00006   0.00000  -0.00169  -0.00052   0.00020
  66        3PZ         0.00003   0.00001  -0.00138   0.00044  -0.00005
  67 7   H  1S         -0.00010   0.00044   0.00115   0.00034   0.00009
  68        2S          0.00044   0.00035  -0.00215  -0.00026   0.00149
  69        3PX        -0.00028   0.00023  -0.00161   0.00023   0.00035
  70        3PY        -0.00006   0.00007  -0.00006  -0.00044  -0.00012
  71        3PZ        -0.00005   0.00019   0.00132   0.00032   0.00027
  72 8   H  1S         -0.00036   0.00022   0.00064  -0.00180   0.00030
  73        2S         -0.00115   0.00055   0.00141   0.00560   0.00058
  74        3PX         0.00001  -0.00010   0.00005  -0.00063  -0.00006
  75        3PY        -0.00007  -0.00013   0.00000  -0.00096   0.00000
  76        3PZ        -0.00004  -0.00009   0.00000  -0.00014   0.00004
  77 9   H  1S          0.00055   0.00050   0.00058  -0.00100  -0.00052
  78        2S          0.00084   0.00077   0.00136   0.00659   0.00016
  79        3PX         0.00006   0.00021   0.00004   0.00036   0.00004
  80        3PY         0.00015   0.00011  -0.00004   0.00046  -0.00015
  81        3PZ        -0.00007  -0.00009  -0.00001   0.00077  -0.00008
  82 10  H  1S          0.00015  -0.00010   0.00028  -0.00008   0.00027
  83        2S          0.00061   0.00027   0.00078   0.00023   0.00049
  84        3PX         0.00010   0.00021  -0.00013  -0.00033   0.00022
  85        3PY         0.00023  -0.00027   0.00017   0.00022   0.00033
  86        3PZ         0.00008   0.00003  -0.00004   0.00020   0.00003
  87 11  H  1S          0.00018  -0.00009  -0.00010  -0.00002  -0.00005
  88        2S          0.00062   0.00031  -0.00087  -0.00021   0.00022
  89        3PX         0.00010   0.00019   0.00010  -0.00027   0.00019
  90        3PY         0.00026  -0.00023  -0.00003   0.00016   0.00027
  91        3PZ        -0.00002  -0.00022   0.00001   0.00006   0.00001
  92 12  O  1S          0.99022   0.00389   0.00000  -0.00003   0.00040
  93        2S         -0.03569   0.00062   0.00008  -0.00029   0.00112
  94        3S          0.02665  -0.00281  -0.00038   0.00129  -0.00838
  95        4PX         0.00245  -0.00021   0.00001   0.00002   0.00012
  96        4PY        -0.00033  -0.00010  -0.00001  -0.00002   0.00015
  97        4PZ        -0.00065   0.00004  -0.00001  -0.00002   0.00004
  98        5PX        -0.00608   0.00106   0.00021  -0.00030   0.00425
  99        5PY         0.00086   0.00185   0.00008  -0.00002  -0.00210
 100        5PZ         0.00163   0.00010   0.00007   0.00013  -0.00165
 101        6D 0        0.00017   0.00007   0.00001   0.00000   0.00013
 102        6D+1        0.00010  -0.00001   0.00000   0.00001   0.00012
 103        6D-1       -0.00007   0.00005   0.00001  -0.00001  -0.00007
 104        6D+2       -0.00004  -0.00007  -0.00004   0.00000  -0.00005
 105        6D-2        0.00003  -0.00028   0.00001   0.00003   0.00010
 106 13  O  1S         -0.00373   0.99038   0.00004  -0.00007   0.00012
 107        2S          0.00087  -0.03484   0.00031  -0.00066   0.00066
 108        3S         -0.00302   0.02436  -0.00050   0.00108  -0.00281
 109        4PX        -0.00002  -0.00019  -0.00016   0.00020   0.00004
 110        4PY        -0.00026   0.00205  -0.00005   0.00014   0.00017
 111        4PZ        -0.00007   0.00061  -0.00010   0.00001  -0.00001
 112        5PX         0.00125   0.00105   0.00039  -0.00074  -0.00207
 113        5PY         0.00147  -0.00608   0.00028  -0.00069   0.00243
 114        5PZ         0.00008  -0.00178   0.00032  -0.00011   0.00114
 115        6D 0        0.00005  -0.00006   0.00002  -0.00013   0.00040
 116        6D+1       -0.00008   0.00001  -0.00006  -0.00001   0.00018
 117        6D-1        0.00001   0.00011  -0.00005   0.00004  -0.00041
 118        6D+2        0.00013  -0.00021   0.00000   0.00001   0.00047
 119        6D-2       -0.00023  -0.00009  -0.00001   0.00008   0.00048
                           6         7         8         9        10
                           O         O         O         O         O
     Eigenvalues --   -11.24362  -1.35916  -1.28342  -1.15191  -1.07172
   1 1   C  1S         -0.00581  -0.02254  -0.16304  -0.03606  -0.01577
   2        2S         -0.00149   0.04545   0.31984   0.07033   0.03371
   3        3S          0.01189  -0.00586   0.05550   0.02711  -0.00901
   4        4PX         0.00039  -0.00462   0.12048  -0.15789  -0.06384
   5        4PY         0.00061   0.00087   0.00041   0.13934  -0.09032
   6        4PZ        -0.00003  -0.00100  -0.02975   0.06865  -0.00494
   7        5PX        -0.00499   0.00936  -0.00662  -0.03112  -0.00019
   8        5PY        -0.00346  -0.00413  -0.01532   0.01290  -0.01669
   9        5PZ         0.00041  -0.00288  -0.00405   0.00877  -0.00434
  10        6D 0        0.00046  -0.00227  -0.01572  -0.00414  -0.00208
  11        6D+1        0.00004  -0.00088  -0.01344   0.00380   0.00156
  12        6D-1       -0.00005   0.00079   0.00721   0.00830  -0.00279
  13        6D+2        0.00013   0.00122   0.01308  -0.02538   0.00252
  14        6D-2       -0.00063  -0.00048  -0.01225  -0.00354   0.01248
  15 2   C  1S          0.99032  -0.03003  -0.03751  -0.02921  -0.17434
  16        2S          0.04048   0.05374   0.07268   0.05738   0.33361
  17        3S         -0.04461   0.02786  -0.01847  -0.00226   0.14485
  18        4PX        -0.00039  -0.01874   0.02551  -0.00953  -0.05713
  19        4PY        -0.00029   0.01790   0.02408   0.02378   0.03057
  20        4PZ        -0.00016   0.00117  -0.00009   0.00802   0.02011
  21        5PX         0.00052  -0.01006  -0.00193  -0.00319  -0.03458
  22        5PY        -0.00478   0.01138   0.00010  -0.00024   0.03082
  23        5PZ        -0.00050   0.00399  -0.00032   0.00056   0.01040
  24        6D 0        0.00036  -0.00269  -0.00314  -0.00171  -0.00533
  25        6D+1        0.00021  -0.00118  -0.00017  -0.00040  -0.00477
  26        6D-1       -0.00012   0.00031  -0.00004   0.00095   0.00171
  27        6D+2       -0.00027   0.00178  -0.00023  -0.00162   0.00614
  28        6D-2       -0.00019  -0.00199   0.00527   0.00058  -0.00270
  29 3   C  1S         -0.00409  -0.09615   0.00053  -0.01875  -0.16602
  30        2S         -0.00088   0.18389  -0.00141   0.03568   0.32962
  31        3S          0.00915   0.00819   0.00426   0.01025   0.03424
  32        4PX        -0.00056  -0.01983   0.01667   0.02579   0.07370
  33        4PY         0.00032   0.06427  -0.00997  -0.00623  -0.04737
  34        4PZ         0.00017  -0.06229   0.00564   0.00408  -0.01270
  35        5PX         0.00316  -0.00424   0.00591   0.01039   0.00514
  36        5PY        -0.00202   0.01212  -0.00229  -0.00100  -0.01880
  37        5PZ        -0.00025  -0.01108  -0.00006  -0.00164  -0.00116
  38        6D 0        0.00030   0.00109  -0.00093  -0.00118  -0.00277
  39        6D+1        0.00028   0.00427  -0.00180  -0.00204  -0.00606
  40        6D-1       -0.00015  -0.01379   0.00194   0.00144   0.00278
  41        6D+2       -0.00041  -0.00517   0.00227   0.00214   0.00674
  42        6D-2        0.00051  -0.00782   0.00057   0.00067  -0.00549
  43 4   N  1S         -0.00004   0.25312  -0.03516  -0.02921  -0.06984
  44        2S         -0.00064   0.51051  -0.07204  -0.06152  -0.14853
  45        3S          0.00223   0.19410  -0.02926  -0.02725  -0.04393
  46        4PX         0.00007  -0.00625  -0.00695  -0.02202  -0.05838
  47        4PY        -0.00013   0.02361   0.00003   0.00572   0.10350
  48        4PZ         0.00003  -0.01475  -0.00081  -0.01014  -0.07083
  49        5PX         0.00070  -0.00112   0.00401   0.01350   0.02901
  50        5PY        -0.00113  -0.02480   0.00152  -0.00177  -0.04970
  51        5PZ         0.00003   0.01332   0.00074   0.00661   0.03752
  52        6D 0       -0.00005   0.00054  -0.00014  -0.00003  -0.00002
  53        6D+1        0.00006   0.00137   0.00003   0.00019   0.00228
  54        6D-1       -0.00005  -0.00459   0.00017  -0.00064  -0.00713
  55        6D+2        0.00004  -0.00244   0.00035   0.00013  -0.00335
  56        6D-2       -0.00007  -0.00273  -0.00004  -0.00054  -0.00413
  57 5   H  1S         -0.00030   0.14873  -0.02504  -0.03150  -0.08752
  58        2S         -0.00021   0.00175  -0.00060  -0.00120  -0.00689
  59        3PX        -0.00019   0.02221  -0.00354  -0.00390  -0.00988
  60        3PY         0.00018   0.00758  -0.00121  -0.00147  -0.00620
  61        3PZ         0.00002   0.01026  -0.00166  -0.00184  -0.00377
  62 6   H  1S          0.00004   0.14347  -0.02186  -0.02034  -0.08740
  63        2S         -0.00006   0.00134   0.00081   0.00420  -0.00379
  64        3PX        -0.00015   0.00135   0.00012   0.00099   0.00058
  65        3PY         0.00003  -0.02101   0.00310   0.00264   0.00901
  66        3PZ        -0.00007  -0.01398   0.00207   0.00205   0.00885
  67 7   H  1S         -0.00003   0.14582  -0.01752  -0.01198  -0.06441
  68        2S          0.00012   0.00298   0.00162   0.00244  -0.00894
  69        3PX         0.00027  -0.01879   0.00315   0.00323   0.00885
  70        3PY        -0.00034  -0.00327   0.00017   0.00029  -0.00148
  71        3PZ         0.00013   0.01734  -0.00162  -0.00061  -0.00514
  72 8   H  1S         -0.00004   0.03838  -0.00151   0.00658   0.11141
  73        2S         -0.00062   0.00596   0.00012   0.00266   0.01514
  74        3PX         0.00023   0.00436   0.00005   0.00092   0.01136
  75        3PY        -0.00008   0.00552  -0.00026   0.00065   0.01066
  76        3PZ        -0.00017  -0.00020   0.00005   0.00018   0.00006
  77 9   H  1S          0.00012   0.03657   0.00173   0.01585   0.10492
  78        2S         -0.00003   0.00494   0.00062   0.00375   0.01430
  79        3PX         0.00040  -0.00114   0.00039   0.00046  -0.00114
  80        3PY        -0.00011  -0.00224  -0.00012  -0.00066  -0.00653
  81        3PZ        -0.00023  -0.00645  -0.00024  -0.00198  -0.01288
  82 10  H  1S         -0.00109   0.01441   0.01799   0.01114   0.10577
  83        2S          0.00741   0.00034   0.00513  -0.00006   0.00794
  84        3PX        -0.00022   0.00011   0.00107  -0.00026   0.00013
  85        3PY        -0.00010   0.00108   0.00164   0.00084   0.00530
  86        3PZ        -0.00123   0.00236   0.00284   0.00166   0.01444
  87 11  H  1S         -0.00142   0.00877   0.01836   0.01127   0.10519
  88        2S          0.00666   0.00249   0.00621   0.00121   0.00952
  89        3PX         0.00038  -0.00094  -0.00005  -0.00086  -0.00540
  90        3PY        -0.00071   0.00147   0.00284   0.00154   0.01077
  91        3PZ         0.00098  -0.00142  -0.00210  -0.00094  -0.00989
  92 12  O  1S         -0.00003   0.01476   0.22093  -0.13737  -0.02384
  93        2S         -0.00036   0.02935   0.43296  -0.27161  -0.04861
  94        3S          0.00118   0.01104   0.25739  -0.17555  -0.03332
  95        4PX         0.00007  -0.00912  -0.11735   0.04892   0.00157
  96        4PY         0.00002   0.00167   0.02190   0.00802  -0.01802
  97        4PZ         0.00000   0.00232   0.03246  -0.00978  -0.00441
  98        5PX        -0.00055  -0.00132  -0.02970   0.01397  -0.00159
  99        5PY         0.00021   0.00009   0.00356   0.00646  -0.00639
 100        5PZ         0.00014  -0.00020   0.00772  -0.00084  -0.00062
 101        6D 0       -0.00011  -0.00043  -0.00517   0.00215  -0.00005
 102        6D+1       -0.00004  -0.00038  -0.00594   0.00186   0.00040
 103        6D-1        0.00004   0.00004   0.00090   0.00027  -0.00064
 104        6D+2        0.00000   0.00088   0.01076  -0.00449   0.00038
 105        6D-2        0.00003  -0.00028  -0.00398  -0.00078   0.00221
 106 13  O  1S         -0.00001   0.02058   0.09972   0.23722  -0.07175
 107        2S         -0.00011   0.03822   0.19449   0.46572  -0.14244
 108        3S         -0.00039   0.03450   0.12911   0.33942  -0.10553
 109        4PX        -0.00002  -0.00356   0.01971   0.00362  -0.01396
 110        4PY         0.00011  -0.00979  -0.04885  -0.07573   0.00763
 111        4PZ         0.00001  -0.00384  -0.01656  -0.02049   0.00730
 112        5PX         0.00032  -0.00347   0.00445  -0.00631  -0.00053
 113        5PY        -0.00024  -0.00685  -0.01846  -0.03453   0.00306
 114        5PZ        -0.00008  -0.00276  -0.00649  -0.01078   0.00424
 115        6D 0       -0.00009  -0.00059  -0.00247  -0.00370   0.00044
 116        6D+1       -0.00004   0.00020  -0.00080  -0.00017   0.00020
 117        6D-1        0.00004   0.00072   0.00311   0.00407  -0.00102
 118        6D+2       -0.00002  -0.00078  -0.00442  -0.00674   0.00050
 119        6D-2        0.00002   0.00003  -0.00316  -0.00192   0.00172
                          11        12        13        14        15
                           O         O         O         O         O
     Eigenvalues --    -0.92179  -0.82971  -0.81798  -0.72844  -0.69047
   1 1   C  1S          0.05053   0.00570  -0.02507  -0.08238   0.09973
   2        2S         -0.10842  -0.01232   0.05247   0.18209  -0.22185
   3        3S         -0.03244   0.00481   0.02881   0.03764  -0.03245
   4        4PX         0.09817   0.01731  -0.02605  -0.08762   0.08186
   5        4PY         0.09721   0.03077  -0.03838  -0.07714   0.07269
   6        4PZ         0.00464   0.00106   0.01632  -0.01480  -0.03791
   7        5PX         0.02529   0.00232  -0.02489  -0.05071   0.04944
   8        5PY         0.02692   0.00505  -0.01465  -0.01428   0.01727
   9        5PZ         0.00130  -0.00015   0.00772   0.00074  -0.01475
  10        6D 0        0.00400   0.00053  -0.00187  -0.00462   0.00570
  11        6D+1       -0.00330   0.00075  -0.00025   0.00068   0.00345
  12        6D-1        0.00047   0.00159   0.00097   0.00332   0.00153
  13        6D+2        0.00464  -0.00240  -0.00586  -0.00139  -0.00209
  14        6D-2       -0.01149  -0.00106   0.00461   0.00467  -0.00239
  15 2   C  1S          0.14481  -0.00103  -0.05496   0.00418  -0.03805
  16        2S         -0.28589   0.00392   0.11241  -0.00303   0.07066
  17        3S         -0.07580  -0.03692   0.04244   0.03276  -0.00651
  18        4PX        -0.08696  -0.02631   0.07614   0.12767  -0.11066
  19        4PY        -0.00424  -0.03345  -0.04702   0.14343  -0.19619
  20        4PZ         0.03293  -0.02808   0.02758  -0.08983  -0.16993
  21        5PX        -0.01602   0.00434   0.01500   0.04332  -0.04642
  22        5PY        -0.01365  -0.01642  -0.02758   0.06930  -0.09307
  23        5PZ         0.02421  -0.00157   0.02006  -0.03533  -0.07525
  24        6D 0       -0.00063   0.00079   0.00157  -0.00453   0.01071
  25        6D+1       -0.00472   0.00159   0.00091   0.00487   0.00578
  26        6D-1        0.00259  -0.00104  -0.00105   0.00216   0.00042
  27        6D+2        0.00573   0.00248  -0.00227  -0.00616   0.00356
  28        6D-2       -0.00768   0.00046   0.00555   0.00869  -0.00739
  29 3   C  1S         -0.14224   0.00338   0.02442   0.03786   0.02737
  30        2S          0.28933  -0.01271  -0.05345  -0.07078  -0.06170
  31        3S          0.04906   0.02341  -0.00917  -0.15552  -0.01816
  32        4PX        -0.12984  -0.06703  -0.04519  -0.04513  -0.06084
  33        4PY         0.04071  -0.11556  -0.04180   0.24132  -0.05024
  34        4PZ         0.04344  -0.09207   0.09022  -0.16964  -0.22885
  35        5PX        -0.04918  -0.01773  -0.02944  -0.02018   0.00031
  36        5PY         0.00358  -0.04893  -0.00602   0.05907  -0.03409
  37        5PZ         0.02110  -0.05093   0.02711  -0.03792  -0.11187
  38        6D 0        0.00086   0.00359  -0.00942   0.00423  -0.00641
  39        6D+1        0.00887   0.00632   0.00579   0.00855  -0.00210
  40        6D-1       -0.00328  -0.00141   0.01125  -0.02174  -0.00902
  41        6D+2       -0.00645   0.01054   0.00455  -0.00592  -0.00809
  42        6D-2        0.00082   0.00251  -0.00509  -0.01006  -0.00804
  43 4   N  1S         -0.02768  -0.00768  -0.00353   0.01858   0.01184
  44        2S         -0.06085  -0.02101  -0.01144   0.04389   0.03056
  45        3S          0.00762  -0.01320  -0.02001   0.09708   0.01715
  46        4PX         0.03267   0.19192   0.41187   0.00839  -0.04288
  47        4PY         0.13842   0.30264  -0.12804   0.27418   0.00405
  48        4PZ        -0.19214   0.26803  -0.15233  -0.24307  -0.19875
  49        5PX        -0.00500  -0.08299  -0.20601   0.01189   0.02076
  50        5PY        -0.07815  -0.14640   0.07579  -0.17401  -0.01157
  51        5PZ         0.10638  -0.13009   0.07782   0.15478   0.11415
  52        6D 0        0.00159  -0.00489  -0.00437  -0.00094  -0.00436
  53        6D+1        0.00483   0.00557   0.01053   0.00737  -0.00152
  54        6D-1       -0.00873  -0.00453   0.00965  -0.00817   0.00021
  55        6D+2       -0.00665   0.00933  -0.00113  -0.00352  -0.00979
  56        6D-2       -0.00113   0.00799   0.00427  -0.00403  -0.00438
  57 5   H  1S         -0.03736   0.27660   0.20549  -0.00636  -0.09978
  58        2S         -0.00810   0.04709   0.03901  -0.00657  -0.03364
  59        3PX        -0.00539   0.02684   0.01070  -0.00233  -0.00966
  60        3PY        -0.00559  -0.00130   0.01062  -0.00711  -0.00303
  61        3PZ         0.00336   0.00818   0.01761   0.00619   0.00252
  62 6   H  1S         -0.03663  -0.27782   0.16892  -0.07505   0.09262
  63        2S         -0.00585  -0.03061   0.02164  -0.01939   0.02698
  64        3PX        -0.00095  -0.00706  -0.01189  -0.00218   0.00139
  65        3PY         0.00107   0.02585  -0.01762   0.00186  -0.00804
  66        3PZ         0.00757   0.01190  -0.00770   0.01129  -0.00182
  67 7   H  1S         -0.14851   0.00436  -0.27840  -0.15237  -0.08076
  68        2S         -0.01003   0.00237  -0.03039  -0.03228  -0.00873
  69        3PX         0.01384  -0.00672   0.01718   0.01525   0.00982
  70        3PY         0.00252  -0.00926   0.01024  -0.00411   0.00196
  71        3PZ        -0.01059  -0.00773  -0.02136  -0.00747   0.00001
  72 8   H  1S          0.15520   0.08688   0.02047  -0.15901   0.03318
  73        2S          0.02801   0.01174   0.00143  -0.02709   0.00618
  74        3PX         0.00893   0.00326   0.00042  -0.00914   0.00086
  75        3PY         0.01358   0.00502   0.00093  -0.00738   0.00051
  76        3PZ         0.00098  -0.00207   0.00051  -0.00227  -0.00417
  77 9   H  1S          0.14368  -0.08828   0.02260  -0.09347  -0.21436
  78        2S          0.02802  -0.00529   0.00008  -0.00827  -0.02855
  79        3PX        -0.00382   0.00062  -0.00042   0.00179   0.00173
  80        3PY        -0.00628   0.00066  -0.00088   0.00699   0.00585
  81        3PZ        -0.01429   0.00652  -0.00091   0.00611   0.01338
  82 10  H  1S         -0.13039   0.03283   0.03776   0.00956   0.23205
  83        2S         -0.01774   0.01479   0.00679  -0.00244   0.05603
  84        3PX        -0.00246  -0.00113   0.00251   0.00192  -0.00286
  85        3PY        -0.00546   0.00124   0.00025   0.00298   0.00486
  86        3PZ        -0.01379   0.00222   0.00487  -0.00112   0.01548
  87 11  H  1S         -0.11892   0.00044   0.09748  -0.09554   0.04443
  88        2S         -0.02850  -0.00122   0.00952  -0.01569   0.01626
  89        3PX         0.00256  -0.00074  -0.00235   0.00620  -0.00350
  90        3PY        -0.00970  -0.00080   0.00688  -0.00391  -0.00077
  91        3PZ         0.00946  -0.00057  -0.00579   0.00328  -0.00659
  92 12  O  1S          0.04349  -0.00019  -0.02210  -0.04378   0.04370
  93        2S          0.08810   0.00030  -0.04669  -0.09244   0.09342
  94        3S          0.07143  -0.00301  -0.03065  -0.06958   0.06803
  95        4PX         0.01552   0.00152  -0.01585  -0.06561   0.07556
  96        4PY         0.02724   0.00938  -0.01418  -0.02434   0.01767
  97        4PZ         0.00438   0.00081   0.00782   0.00115  -0.03339
  98        5PX         0.00798   0.00158  -0.01120  -0.03877   0.04621
  99        5PY         0.00778   0.00454  -0.00419  -0.00867   0.00553
 100        5PZ         0.00016   0.00003   0.00551   0.00332  -0.02280
 101        6D 0        0.00067  -0.00002  -0.00037  -0.00170   0.00084
 102        6D+1       -0.00017  -0.00005  -0.00107  -0.00052   0.00301
 103        6D-1        0.00072   0.00026  -0.00015  -0.00064   0.00048
 104        6D+2       -0.00155  -0.00023   0.00120   0.00399  -0.00418
 105        6D-2       -0.00227  -0.00077   0.00095   0.00132  -0.00099
 106 13  O  1S          0.03360   0.02058   0.00440  -0.03610   0.05701
 107        2S          0.06711   0.04143   0.00865  -0.07146   0.11637
 108        3S          0.05891   0.03533   0.00492  -0.08550   0.12525
 109        4PX         0.01385   0.03021   0.01153  -0.01026   0.01057
 110        4PY         0.01164   0.00142  -0.00648  -0.05538   0.09712
 111        4PZ         0.00431  -0.00181   0.01230  -0.01237  -0.00042
 112        5PX         0.00174   0.01574   0.00837   0.00160   0.00022
 113        5PY         0.00218   0.00060  -0.00174  -0.02738   0.05786
 114        5PZ         0.00432  -0.00038   0.00796  -0.00521  -0.00025
 115        6D 0       -0.00016   0.00013  -0.00076  -0.00106   0.00240
 116        6D+1       -0.00080  -0.00042  -0.00057   0.00000  -0.00019
 117        6D-1       -0.00038   0.00033  -0.00067   0.00146  -0.00091
 118        6D+2        0.00090  -0.00063  -0.00075  -0.00304   0.00511
 119        6D-2       -0.00096  -0.00135  -0.00074   0.00057  -0.00022
                          16        17        18        19        20
                           O         O         O         O         O
     Eigenvalues --    -0.62572  -0.59622  -0.57701  -0.55279  -0.50287
   1 1   C  1S         -0.10679  -0.02588   0.04609  -0.02984  -0.01633
   2        2S          0.24280   0.06247  -0.11210   0.08105   0.03322
   3        3S          0.07745   0.04869  -0.01842  -0.04314   0.07294
   4        4PX         0.00566   0.11189  -0.05534   0.24297  -0.23014
   5        4PY        -0.00484  -0.07087  -0.13554   0.18097   0.24322
   6        4PZ        -0.07289   0.04619  -0.09812  -0.05264   0.09680
   7        5PX        -0.05354  -0.00997  -0.00580   0.05547  -0.04885
   8        5PY        -0.01965  -0.03867  -0.02151   0.05228   0.02804
   9        5PZ        -0.02415   0.03058  -0.03877  -0.01453   0.00466
  10        6D 0       -0.00379  -0.00305   0.00554  -0.00065  -0.00111
  11        6D+1       -0.00078  -0.00051   0.00327  -0.00393   0.00575
  12        6D-1        0.00611  -0.00333   0.00432   0.00216   0.00317
  13        6D+2        0.00033  -0.00689  -0.00542   0.00579  -0.02110
  14        6D-2       -0.00132  -0.00411   0.00105  -0.00225   0.00438
  15 2   C  1S          0.03284   0.00784   0.00551  -0.00205  -0.00030
  16        2S         -0.06963  -0.01565  -0.01769  -0.01009  -0.00821
  17        3S         -0.02826  -0.03778   0.02663   0.07866   0.04050
  18        4PX         0.04431   0.24273   0.17055  -0.10304   0.11991
  19        4PY         0.09802  -0.22661  -0.05012  -0.16636  -0.09794
  20        4PZ        -0.18050   0.15755  -0.23864  -0.10219  -0.04503
  21        5PX        -0.00438   0.08894   0.06924  -0.09449  -0.01288
  22        5PY         0.04793  -0.13369  -0.01181  -0.05994  -0.02915
  23        5PZ        -0.08284   0.09309  -0.11096  -0.04296  -0.00338
  24        6D 0       -0.00158   0.00248   0.01400   0.01328   0.00712
  25        6D+1       -0.00047   0.01015   0.00110  -0.00162   0.00652
  26        6D-1        0.00347  -0.01473   0.00530   0.00469  -0.00097
  27        6D+2        0.00402  -0.00697  -0.00808  -0.00085  -0.01434
  28        6D-2        0.01528   0.00512   0.00931  -0.01106   0.00413
  29 3   C  1S         -0.01146   0.02736   0.00902  -0.00538   0.02495
  30        2S          0.01905  -0.06227  -0.03318   0.02221  -0.06169
  31        3S          0.01833  -0.09684  -0.01763  -0.08476  -0.11087
  32        4PX        -0.20409  -0.26046  -0.15703   0.10104  -0.15969
  33        4PY        -0.20262   0.03756   0.13935   0.14705   0.04900
  34        4PZ        -0.01894   0.00026   0.24235   0.12285   0.07223
  35        5PX        -0.12366  -0.11995  -0.09152   0.01049  -0.11317
  36        5PY        -0.07534  -0.01084   0.07462   0.05873   0.04712
  37        5PZ        -0.02735   0.02918   0.11859   0.08660   0.06901
  38        6D 0       -0.00797  -0.00262   0.01421   0.01343   0.00166
  39        6D+1       -0.00460   0.01456   0.00209  -0.00209   0.00499
  40        6D-1        0.00573  -0.01368   0.00937   0.00681  -0.00129
  41        6D+2        0.00035  -0.01143  -0.00639  -0.00598  -0.00544
  42        6D-2        0.02075   0.00309   0.00677  -0.01207   0.00527
  43 4   N  1S         -0.01621   0.02536  -0.01264   0.00438   0.00510
  44        2S         -0.03653   0.05673  -0.03103   0.00882   0.00988
  45        3S         -0.06024   0.10667  -0.03787   0.03711   0.04224
  46        4PX        -0.03067  -0.15672  -0.00629   0.01255  -0.03515
  47        4PY        -0.15977   0.09085   0.03162   0.03658   0.01355
  48        4PZ         0.01718  -0.04095   0.08309   0.02118  -0.00650
  49        5PX         0.00528   0.09745   0.01525  -0.00806   0.01910
  50        5PY         0.10200  -0.08187  -0.02020  -0.03172  -0.01543
  51        5PZ        -0.02228   0.04104  -0.04521  -0.00580   0.00472
  52        6D 0       -0.00208   0.00453   0.00804   0.00474   0.00359
  53        6D+1       -0.00841  -0.00732  -0.00165   0.00373  -0.00360
  54        6D-1        0.00241  -0.00720  -0.00351  -0.00097  -0.00246
  55        6D+2       -0.00635  -0.00515   0.00534   0.00485  -0.00042
  56        6D-2        0.00196   0.00328   0.00563  -0.00119   0.00308
  57 5   H  1S         -0.07838  -0.10808   0.02830   0.03264  -0.03160
  58        2S         -0.02474  -0.04508   0.00915   0.01602  -0.01012
  59        3PX        -0.00562  -0.00445   0.00348   0.00220  -0.00126
  60        3PY         0.00089  -0.00744  -0.00029   0.00181  -0.00197
  61        3PZ        -0.00175  -0.00368  -0.00287  -0.00188  -0.00092
  62 6   H  1S          0.09549  -0.04480  -0.07683  -0.04046  -0.01463
  63        2S          0.01702  -0.01473  -0.01098  -0.03099  -0.04172
  64        3PX         0.00111   0.00604   0.00252  -0.00206  -0.00026
  65        3PY        -0.00404   0.00288   0.00445   0.00045   0.00098
  66        3PZ        -0.00762   0.00324   0.00378   0.00293   0.00141
  67 7   H  1S          0.04706   0.07858   0.06054   0.00376   0.03732
  68        2S          0.01948   0.02424   0.04361   0.00788   0.00967
  69        3PX        -0.00131  -0.00391  -0.00467  -0.00263   0.00016
  70        3PY         0.00417  -0.00122  -0.00203  -0.00327  -0.00083
  71        3PZ         0.00359   0.00578  -0.00035  -0.00159   0.00115
  72 8   H  1S          0.28092   0.10563  -0.00967  -0.17815   0.04530
  73        2S          0.09028   0.04489  -0.00282  -0.08597   0.03189
  74        3PX         0.00918  -0.00030  -0.00301  -0.00480  -0.00137
  75        3PY         0.01241   0.00711   0.00333  -0.00701   0.00298
  76        3PZ        -0.00160  -0.00119   0.00639   0.00353   0.00106
  77 9   H  1S         -0.07611  -0.03954   0.23632   0.17373   0.03986
  78        2S         -0.02075  -0.00538   0.08714   0.06499   0.00059
  79        3PX        -0.00338  -0.00376  -0.00618  -0.00014  -0.00365
  80        3PY        -0.00236   0.00175  -0.00413  -0.00125  -0.00079
  81        3PZ         0.00517   0.00167  -0.01288  -0.00954  -0.00065
  82 10  H  1S          0.07342  -0.07781   0.21338   0.16434   0.07801
  83        2S          0.01368  -0.01825   0.08494   0.06297   0.04406
  84        3PX         0.00118   0.00545   0.00288  -0.00209   0.00305
  85        3PY         0.00556  -0.00639   0.00703   0.00152  -0.00135
  86        3PZ         0.00101  -0.00180   0.00925   0.00930   0.00456
  87 11  H  1S         -0.18079   0.28778  -0.06092   0.02789   0.08349
  88        2S         -0.04683   0.07515  -0.01908   0.00525   0.04146
  89        3PX         0.00683  -0.00285   0.00488  -0.00242   0.00061
  90        3PY        -0.00853   0.01292  -0.00468  -0.00215   0.00110
  91        3PZ         0.00530  -0.00985  -0.00287  -0.00492  -0.00618
  92 12  O  1S         -0.07214  -0.04877   0.01729  -0.06153   0.04818
  93        2S         -0.14946  -0.09969   0.03483  -0.12246   0.10001
  94        3S         -0.15763  -0.12224   0.04120  -0.17987   0.14581
  95        4PX        -0.19095  -0.13346   0.02853  -0.22150   0.31817
  96        4PY         0.03625  -0.02721  -0.13310   0.23427   0.09799
  97        4PZ         0.00778   0.09278  -0.10100   0.07523  -0.06783
  98        5PX        -0.11146  -0.07715   0.01465  -0.13007   0.20594
  99        5PY         0.02888  -0.01204  -0.08596   0.15223   0.07472
 100        5PZ         0.00639   0.05842  -0.06476   0.04454  -0.04038
 101        6D 0       -0.00510  -0.00145  -0.00159  -0.00481   0.00615
 102        6D+1       -0.00130  -0.00732   0.00626  -0.00499   0.00583
 103        6D-1        0.00030   0.00018  -0.00221   0.00341   0.00160
 104        6D+2        0.00908   0.00558   0.00020   0.00769  -0.01419
 105        6D-2       -0.00339   0.00097   0.00714  -0.01343  -0.00516
 106 13  O  1S         -0.04357   0.01454   0.05029  -0.02928  -0.06843
 107        2S         -0.08831   0.02923   0.09895  -0.05498  -0.13692
 108        3S         -0.10181   0.04039   0.13458  -0.08142  -0.19342
 109        4PX         0.03655   0.03643  -0.10009   0.15960   0.07026
 110        4PY        -0.08460   0.03450   0.14723  -0.05580  -0.30931
 111        4PZ        -0.06755   0.03476   0.01637  -0.06088  -0.09598
 112        5PX         0.03016   0.02568  -0.07066   0.11264   0.05183
 113        5PY        -0.05079   0.02287   0.09277  -0.03495  -0.21384
 114        5PZ        -0.04316   0.02132   0.01151  -0.03892  -0.06571
 115        6D 0       -0.00052   0.00000   0.00413  -0.00028  -0.00575
 116        6D+1       -0.00057  -0.00007   0.00129  -0.00310  -0.00078
 117        6D-1        0.00492  -0.00281  -0.00213   0.00369   0.00787
 118        6D+2       -0.00383   0.00185   0.00647  -0.00111  -0.01341
 119        6D-2       -0.00254  -0.00223   0.00565  -0.00797  -0.00294
                          21        22        23        24        25
                           O         O         O         O         V
     Eigenvalues --    -0.46325  -0.35903  -0.33891  -0.32218   0.08962
   1 1   C  1S         -0.00242   0.00533   0.00177  -0.00052  -0.00399
   2        2S          0.01326   0.00248  -0.00787   0.00075   0.00025
   3        3S         -0.03917  -0.12507   0.02360   0.02547   0.01543
   4        4PX         0.05974  -0.07756   0.02810  -0.00587  -0.01255
   5        4PY        -0.05983  -0.12414  -0.07162  -0.00389  -0.01707
   6        4PZ         0.28862  -0.00822  -0.01658  -0.02594  -0.01157
   7        5PX         0.06889   0.13833  -0.09359  -0.01330  -0.11694
   8        5PY        -0.05084   0.11226   0.04867  -0.00117   0.04653
   9        5PZ         0.21001  -0.00470   0.03336   0.00171   0.02500
  10        6D 0       -0.00579  -0.00310  -0.00322   0.02656  -0.00238
  11        6D+1        0.01963   0.01418  -0.00064  -0.03268   0.00009
  12        6D-1        0.00979  -0.01218  -0.01541   0.02674   0.00123
  13        6D+2        0.00588  -0.00414   0.03655   0.00153  -0.00311
  14        6D-2       -0.00321   0.05458   0.01676   0.01736   0.00060
  15 2   C  1S          0.00299  -0.04465  -0.01248   0.00002  -0.01592
  16        2S         -0.01104   0.09584   0.03389  -0.00145   0.02493
  17        3S          0.01169   0.51152   0.01788  -0.04076   0.08451
  18        4PX        -0.01701   0.15284   0.06718   0.01737   0.00797
  19        4PY         0.02708   0.18409   0.01815  -0.00247  -0.01773
  20        4PZ        -0.14123   0.00619  -0.01105   0.01143  -0.03814
  21        5PX        -0.01438   0.07895   0.01731   0.00841   0.14018
  22        5PY         0.03484   0.24295  -0.01068  -0.00886  -0.12750
  23        5PZ        -0.09744   0.01922   0.00704   0.01918  -0.16417
  24        6D 0        0.00500  -0.00387   0.00102   0.00054   0.00229
  25        6D+1        0.00565   0.00052   0.00286  -0.00113  -0.00380
  26        6D-1        0.01458  -0.00151  -0.00141  -0.00054   0.00340
  27        6D+2        0.00367  -0.00066  -0.00342  -0.00037   0.00292
  28        6D-2        0.00348   0.00803   0.00389   0.00179   0.00476
  29 3   C  1S          0.00017  -0.00289   0.01808   0.00512  -0.02246
  30        2S         -0.00638   0.02346  -0.05014  -0.01227  -0.00495
  31        3S          0.02610  -0.20390  -0.06250  -0.02129   0.89042
  32        4PX        -0.01539  -0.04351  -0.05739  -0.01663  -0.04228
  33        4PY         0.00534   0.00994  -0.00717  -0.00972  -0.08284
  34        4PZ         0.01862   0.01507   0.00048  -0.01848   0.05190
[...]
 119        6D-2        0.00000   0.00000   0.00000   0.00000   0.00000
                         106       107       108       109       110
 106 13  O  1S          2.13477
 107        2S         -0.09534   0.70163
 108        3S         -0.04443   0.37172   0.38811
 109        4PX         0.00000   0.00000   0.00000   0.60525
 110        4PY         0.00000   0.00000   0.00000   0.00000   0.60158
 111        4PZ         0.00000   0.00000   0.00000   0.00000   0.00000
 112        5PX         0.00000   0.00000   0.00000   0.16416   0.00000
 113        5PY         0.00000   0.00000   0.00000   0.00000   0.19866
 114        5PZ         0.00000   0.00000   0.00000   0.00000   0.00000
 115        6D 0        0.00000   0.00000   0.00000   0.00000   0.00000
 116        6D+1        0.00000   0.00000   0.00000   0.00000   0.00000
 117        6D-1        0.00000   0.00000   0.00000   0.00000   0.00000
 118        6D+2        0.00000   0.00000   0.00000   0.00000   0.00000
 119        6D-2        0.00000   0.00000   0.00000   0.00000   0.00000
                         111       112       113       114       115
 111        4PZ         0.73841
 112        5PX         0.00000   0.18750
 113        5PY         0.00000   0.00000   0.27111
 114        5PZ         0.28471   0.00000   0.00000   0.43990
 115        6D 0        0.00000   0.00000   0.00000   0.00000   0.00046
 116        6D+1        0.00000   0.00000   0.00000   0.00000   0.00000
 117        6D-1        0.00000   0.00000   0.00000   0.00000   0.00000
 118        6D+2        0.00000   0.00000   0.00000   0.00000   0.00000
 119        6D-2        0.00000   0.00000   0.00000   0.00000   0.00000
                         116       117       118       119
 116        6D+1        0.00020
 117        6D-1        0.00000   0.00106
 118        6D+2        0.00000   0.00000   0.00148
 119        6D-2        0.00000   0.00000   0.00000   0.00066
     Gross orbital populations:
                           1
   1 1   C  1S          1.98992
   2        2S          0.91248
   3        3S          0.14029
   4        4PX         0.77372
   5        4PY         0.66677
   6        4PZ         0.44688
   7        5PX         0.13940
   8        5PY         0.09823
   9        5PZ         0.24709
  10        6D 0        0.01012
  11        6D+1        0.02843
  12        6D-1        0.02009
  13        6D+2        0.04896
  14        6D-2        0.05981
  15 2   C  1S          1.98884
  16        2S          0.87212
  17        3S          0.23928
  18        4PX         0.70079
  19        4PY         0.69557
  20        4PZ         0.68743
  21        5PX         0.22997
  22        5PY         0.32712
  23        5PZ         0.34893
  24        6D 0        0.01224
  25        6D+1        0.00631
  26        6D-1        0.00291
  27        6D+2        0.00767
  28        6D-2        0.01250
  29 3   C  1S          1.98906
  30        2S          0.86891
  31        3S          0.18274
  32        4PX         0.68374
  33        4PY         0.64127
  34        4PZ         0.69463
  35        5PX         0.26535
  36        5PY         0.19908
  37        5PZ         0.30947
  38        6D 0        0.01519
  39        6D+1        0.00820
  40        6D-1        0.00715
  41        6D+2        0.01381
  42        6D-2        0.01814
  43 4   N  1S          1.98944
  44        2S          0.95160
  45        3S          0.51921
  46        4PX         0.84272
  47        4PY         0.83258
  48        4PZ         0.72416
  49        5PX         0.56975
  50        5PY         0.57534
  51        5PZ         0.37489
  52        6D 0        0.00426
  53        6D+1        0.00687
  54        6D-1        0.00322
  55        6D+2        0.00533
  56        6D-2        0.00243
  57 5   H  1S          0.72693
  58        2S          0.09445
  59        3PX         0.01142
  60        3PY         0.00890
  61        3PZ         0.02706
  62 6   H  1S          0.72547
  63        2S          0.09011
  64        3PX         0.01965
  65        3PY         0.01266
  66        3PZ         0.01532
  67 7   H  1S          0.64470
  68        2S          0.06428
  69        3PX         0.05056
  70        3PY         0.01301
  71        3PZ         0.01631
  72 8   H  1S          0.77021
  73        2S          0.16840
  74        3PX         0.00807
  75        3PY         0.01177
  76        3PZ         0.00364
  77 9   H  1S          0.76588
  78        2S          0.15862
  79        3PX         0.00324
  80        3PY         0.00256
  81        3PZ         0.01779
  82 10  H  1S          0.75084
  83        2S          0.15888
  84        3PX         0.00368
  85        3PY         0.00377
  86        3PZ         0.01792
  87 11  H  1S          0.75228
  88        2S          0.15099
  89        3PX         0.00495
  90        3PY         0.01538
  91        3PZ         0.00464
  92 12  O  1S          1.99072
  93        2S          1.07199
  94        3S          0.69107
  95        4PX         0.92571
  96        4PY         1.08753
  97        4PZ         0.81580
  98        5PX         0.44827
  99        5PY         0.69025
 100        5PZ         0.62049
 101        6D 0        0.00252
 102        6D+1        0.00703
 103        6D-1        0.00065
 104        6D+2        0.00683
 105        6D-2        0.00547
 106 13  O  1S          1.99043
 107        2S          1.05983
 108        3S          0.63522
 109        4PX         0.92020
 110        4PY         0.91337
 111        4PZ         1.05079
 112        5PX         0.45937
 113        5PY         0.52278
 114        5PZ         0.76116
 115        6D 0        0.00228
 116        6D+1        0.00055
 117        6D-1        0.00273
 118        6D+2        0.00871
 119        6D-2        0.00148
          Condensed to atoms (all electrons):
               1          2          3          4          5          6
     1  C    4.254083   0.325964  -0.047728  -0.001009  -0.000876  -0.000073
     2  C    0.325964   5.126174   0.285719  -0.066293  -0.002717   0.007595
     3  C   -0.047728   0.285719   4.665102   0.248024  -0.026860  -0.016998
     4  N   -0.001009  -0.066293   0.248024   6.500664   0.368999   0.369211
     5  H   -0.000876  -0.002717  -0.026860   0.368999   0.552582  -0.024484
     6  H   -0.000073   0.007595  -0.016998   0.369211  -0.024484   0.540548
     7  H   -0.002695  -0.008762  -0.015802   0.060977  -0.001724  -0.001421
     8  H    0.005982  -0.035312   0.416668  -0.024051  -0.008898  -0.001949
     9  H   -0.004213  -0.034514   0.415370  -0.029371   0.007609  -0.009244
    10  H   -0.016655   0.380531  -0.028520  -0.002996   0.004480  -0.000216
    11  H   -0.012765   0.380261  -0.023385   0.004527  -0.000116  -0.000263
    12  O    0.717731  -0.096023   0.002386  -0.000054   0.000004   0.000005
    13  O    0.364449  -0.130943   0.022759  -0.026824   0.000763   0.000499
               7          8          9         10         11         12
     1  C   -0.002695   0.005982  -0.004213  -0.016655  -0.012765   0.717731
     2  C   -0.008762  -0.035312  -0.034514   0.380531   0.380261  -0.096023
     3  C   -0.015802   0.416668   0.415370  -0.028520  -0.023385   0.002386
     4  N    0.060977  -0.024051  -0.029371  -0.002996   0.004527  -0.000054
     5  H   -0.001724  -0.008898   0.007609   0.004480  -0.000116   0.000004
     6  H   -0.001421  -0.001949  -0.009244  -0.000216  -0.000263   0.000005
     7  H    0.412986   0.001795  -0.001600  -0.000636   0.000202   0.002195
     8  H    0.001795   0.648669  -0.029516  -0.007206  -0.003532  -0.000169
     9  H   -0.001600  -0.029516   0.628682   0.006765  -0.002285   0.000473
    10  H   -0.000636  -0.007206   0.006765   0.602819  -0.007470   0.001424
    11  H    0.000202  -0.003532  -0.002285  -0.007470   0.578450   0.009785
    12  O    0.002195  -0.000169   0.000473   0.001424   0.009785   7.809954
    13  O    0.343344  -0.000386  -0.000060   0.002772   0.004847  -0.083392
              13
     1  C    0.364449
     2  C   -0.130943
     3  C    0.022759
     4  N   -0.026824
     5  H    0.000763
     6  H    0.000499
     7  H    0.343344
     8  H   -0.000386
     9  H   -0.000060
    10  H    0.002772
    11  H    0.004847
    12  O   -0.083392
    13  O    7.831070
 Mulliken charges:
               1
     1  C    0.417805
     2  C   -0.131680
     3  C    0.103264
     4  N   -0.401804
     5  H    0.131239
     6  H    0.136791
     7  H    0.211139
     8  H    0.037904
     9  H    0.051904
    10  H    0.064908
    11  H    0.071745
    12  O   -0.364318
    13  O   -0.328897
 Sum of Mulliken charges =   0.00000
 Mulliken charges with hydrogens summed into heavy atoms:
               1
     1  C    0.417805
     2  C    0.004974
     3  C    0.193071
     4  N   -0.133774
    12  O   -0.364318
    13  O   -0.117759
 Electronic spatial extent (au):  <R**2>=            613.5523
 Charge=              0.0000 electrons
 Dipole moment (field-independent basis, Debye):
    X=             -6.5884    Y=             -1.2079    Z=             -0.6489  Tot=              6.7296
 Quadrupole moment (field-independent basis, Debye-Ang):
   XX=            -40.2947   YY=            -37.5278   ZZ=            -33.4913
   XY=             -1.2644   XZ=             -0.5684   YZ=             -0.0363
 Traceless Quadrupole moment (field-independent basis, Debye-Ang):
   XX=             -3.1901   YY=             -0.4232   ZZ=              3.6133
   XY=             -1.2644   XZ=             -0.5684   YZ=             -0.0363
 Octapole moment (field-independent basis, Debye-Ang**2):
  XXX=            -41.3671  YYY=              0.5039  ZZZ=             -1.4967  XYY=             -3.8114
  XXY=              7.6784  XXZ=             -2.2691  XZZ=             -2.3868  YZZ=              2.0226
  YYZ=              0.2010  XYZ=             -0.7039
 Hexadecapole moment (field-independent basis, Debye-Ang**3):
 XXXX=           -497.4392 YYYY=           -185.3835 ZZZZ=            -56.2331 XXXY=             -9.5761
 XXXZ=             -1.6077 YYYX=             -8.0059 YYYZ=             -1.0583 ZZZX=              4.2099
 ZZZY=             -0.1572 XXYY=           -114.6544 XXZZ=            -83.1556 YYZZ=            -41.9468
 XXYZ=              2.1090 YYXZ=             -0.5680 ZZXY=             -2.8461
 N-N= 2.488627419731D+02 E-N=-1.253183325494D+03  KE= 3.206051558669D+02
 Orbital energies and kinetic energies (alpha):
                                 1                 2
   1         O               -20.572557         28.827124
   2         O               -20.514984         28.830585
   3         O               -15.582533         21.834204
   4         O               -11.364152         15.819186
   5         O               -11.287375         15.814688
   6         O               -11.250389         15.808786
   7         O                -1.437122          2.750389
   8         O                -1.337782          2.997547
   9         O                -1.212277          1.891139
  10         O                -1.035644          1.618139
  11         O                -0.879448          1.607734
  12         O                -0.815686          2.051053
  13         O                -0.732376          1.307316
  14         O                -0.703278          1.323676
  15         O                -0.656820          1.696417
  16         O                -0.644875          1.780672
  17         O                -0.629762          1.744337
  18         O                -0.588567          1.530722
  19         O                -0.574573          1.880017
  20         O                -0.537245          1.541431
  21         O                -0.524389          1.425870
  22         O                -0.458229          2.188149
  23         O                -0.442893          2.004578
  24         O                -0.420589          2.028817
  25         V                 0.144824          0.673718
  26         V                 0.189219          0.856866
  27         V                 0.198412          0.651658
  28         V                 0.210620          1.187313
  29         V                 0.232028          0.681318
  30         V                 0.261751          0.831007
  31         V                 0.275868          0.940669
  32         V                 0.303803          1.085086
  33         V                 0.356823          1.166062
  34         V                 0.386431          1.381258
  35         V                 0.407784          1.471470
  36         V                 0.453138          1.107068
  37         V                 0.530323          1.421933
  38         V                 0.602494          1.564503
  39         V                 0.647045          2.235875
  40         V                 0.660066          1.761373
  41         V                 0.726392          3.175462
  42         V                 0.745648          2.063389
  43         V                 0.751456          1.968871
  44         V                 0.791403          2.840618
  45         V                 0.813360          2.134534
  46         V                 0.838692          2.568653
  47         V                 0.858824          2.505280
  48         V                 0.877611          2.414179
  49         V                 0.878576          2.420122
  50         V                 0.894972          2.527484
  51         V                 0.906090          2.461666
  52         V                 0.918442          2.178142
  53         V                 0.940485          2.421078
  54         V                 0.991480          3.304209
  55         V                 1.043822          2.516291
  56         V                 1.076331          2.586921
  57         V                 1.094947          2.644173
  58         V                 1.155941          2.970544
  59         V                 1.218095          2.832679
  60         V                 1.231710          2.676064
  61         V                 1.310560          3.201873
  62         V                 1.321692          3.053359
  63         V                 1.399589          3.039234
  64         V                 1.420962          3.280833
  65         V                 1.429576          3.242000
  66         V                 1.449513          2.606292
  67         V                 1.493650          2.457433
  68         V                 1.574060          2.253911
  69         V                 1.603329          2.813139
  70         V                 1.647983          3.664684
  71         V                 1.693711          2.407173
  72         V                 1.747942          2.755591
  73         V                 1.762282          2.681659
  74         V                 1.866508          2.728613
  75         V                 1.904710          3.107216
  76         V                 1.917054          2.896775
  77         V                 1.990441          2.928960
  78         V                 2.016760          3.051768
  79         V                 2.020939          3.075772
  80         V                 2.035931          2.990552
  81         V                 2.045769          2.864897
  82         V                 2.068436          3.010543
  83         V                 2.094798          2.939570
  84         V                 2.153804          2.848626
  85         V                 2.163702          3.235398
  86         V                 2.191716          3.108945
  87         V                 2.193910          3.159996
  88         V                 2.284262          3.588000
  89         V                 2.309449          3.625308
  90         V                 2.334543          3.340407
  91         V                 2.419852          3.708032
  92         V                 2.451356          3.682495
  93         V                 2.568858          3.941052
  94         V                 2.606431          4.031604
  95         V                 2.632699          3.935248
  96         V                 2.680772          4.044038
  97         V                 2.777743          4.088548
  98         V                 2.785503          4.330922
  99         V                 2.859605          4.153026
 100         V                 2.891832          4.172743
 101         V                 3.022742          4.310672
 102         V                 3.028345          4.267514
 103         V                 3.085309          4.370352
 104         V                 3.095019          4.265897
 105         V                 3.185147          4.610566
 106         V                 3.216739          4.667088
 107         V                 3.238872          4.498821
 108         V                 3.285783          4.610945
 109         V                 3.328776          4.715522
 110         V                 3.404031          4.795957
 111         V                 3.430251          4.698811
 112         V                 3.513451          5.177760
 113         V                 3.564271          5.222620
 114         V                 3.645468          4.910384
 115         V                 3.776189          5.396406
 116         V                 3.821305          5.374131
 117         V                 3.876960          5.511584
 118         V                 4.123325          6.169048
 119         V                 4.285400          5.940746
 Total kinetic energy from orbitals= 3.206051558669D+02
 No NMR shielding tensors so no spin-rotation constants.
 Leave Link  601 at Wed Apr 29 13:00:48 2026, MaxMem=    33554432 cpu:         0.1
 (Enter /opt/g09/g09/l9999.exe)
 B after Tr=     0.067764   -0.150489   -0.068627
         Rot=    0.995422    0.066982    0.032854    0.059741 Ang=  10.97 deg.
 Final structure in terms of initial Z-matrix:
 C
 C,1,cc2
 C,2,cc3,1,ccc3
 N,3,nc4,2,ncc4,1,dih4,0
 H,4,hn5,3,hnc5,2,dih5,0
 H,4,hn6,3,hnc6,5,dih6,0
 H,4,hn7,5,hnh7,6,dih7,0
 H,3,hc8,4,hcn8,2,dih8,0
 H,3,hc9,4,hcn9,2,dih9,0
 H,2,hc10,1,hcc10,3,dih10,0
 H,2,hc11,3,hcc11,1,dih11,0
 O,1,oc12,2,occ12,3,dih12,0
 O,1,oc13,12,oco13,2,dih13,0
      Variables:
 cc2=1.52206209
 cc3=1.52763191
 ccc3=115.62564763
 nc4=1.45689927
 ncc4=111.05640896
 dih4=64.69714102
 hn5=1.00559251
 hnc5=111.48306413
 dih5=73.20443842
 hn6=1.00414507
 hnc6=111.82389395
 dih6=120.14065434
 hn7=1.91535905
 hnh7=113.42132677
 dih7=-137.32148572
 hc8=1.09442718
 hcn8=112.76465434
 dih8=-122.39353444
 hc9=1.09154147
 hcn9=107.98932664
 dih9=120.08185036
 hc10=1.09510562
 hcc10=107.10350119
 dih10=122.43408231
 hc11=1.08781669
 hcc11=110.61763632
 dih11=121.45593292
 oc12=1.18037971
 occ12=122.05198524
 dih12=142.70956784
 oc13=1.31820626
 oco13=121.83520051
 dih13=-178.48364874

 Test job not archived.
 1\1\GINC-KADET27\FOpt\RHF\def2SVP\C3H7N1O2\MDOROHUN\29-Apr-2026\0\\#P 
 RHF/def2SVP Opt Pop=Full GFInput IOP(6/7=3)\\Optymalizacja b-alanina\\
 0,1\C,-0.1237259916,0.1349520248,0.0015311264\C,0.0406243741,0.1109370
 859,1.514503452\C,1.474803964,-0.0309576006,2.0211138174\N,2.277060511
 3,1.1281120981,1.6530141571\H,2.0344365619,1.9338184863,2.2036384742\H
 ,3.2582003919,0.9602203484,1.7852420508\H,1.4814431866,1.1290075281,-0
 .0892810474\H,1.451397735,-0.2039379115,3.1015307761\H,1.9337307156,-0
 .914462586,1.5736007477\H,-0.3947012679,1.0386965546,1.9005219441\H,-0
 .5785284099,-0.7035528951,1.8840992465\O,-1.0374526775,-0.3824779265,-
 0.5376034053\O,0.7990223107,0.7930479504,-0.6716056038\\Version=ES64L-
 G09RevD.01\State=1-A\HF=-321.6298886\RMSD=7.367e-09\RMSF=1.531e-05\Dip
 ole=1.5078575,0.5250134,2.1120094\Quadrupole=0.2655024,1.7795075,-2.04
 50099,-1.2921653,-1.4453363,0.2552644\PG=C01 [X(C3H7N1O2)]\\@


 THE MORE POWERFUL THE METHOD, THE MORE CATASTROPHIC THE ERRORS.
     -- M.D. KAMEN
 Job cpu time:       0 days  0 hours  0 minutes 53.0 seconds.
 File lengths (MBytes):  RWF=      9 Int=      0 D2E=      0 Chk=      2 Scr=      1
 Normal termination of Gaussian 09 at Wed Apr 29 13:00:48 2026.
