 Entering Gaussian System, Link 0=/opt/g09/g09/g09
 Input=b-ala_after_opt_h2o.inp
 Output=b-ala_after_opt_h2o.log
 Initial command:
 /opt/g09/g09/l1.exe "/tmp/Gau-13223.inp" -scrdir="/tmp/"
 Entering Link 1 = /opt/g09/g09/l1.exe PID=     13225.
  
 Copyright (c) 1988,1990,1992,1993,1995,1998,2003,2009,2013,
            Gaussian, Inc.  All Rights Reserved.
  
 This is part of the Gaussian(R) 09 program.  It is based on
 the Gaussian(R) 03 system (copyright 2003, Gaussian, Inc.),
 the Gaussian(R) 98 system (copyright 1998, Gaussian, Inc.),
 the Gaussian(R) 94 system (copyright 1995, Gaussian, Inc.),
 the Gaussian 92(TM) system (copyright 1992, Gaussian, Inc.),
 the Gaussian 90(TM) system (copyright 1990, Gaussian, Inc.),
 the Gaussian 88(TM) system (copyright 1988, Gaussian, Inc.),
 the Gaussian 86(TM) system (copyright 1986, Carnegie Mellon
 University), and the Gaussian 82(TM) system (copyright 1983,
 Carnegie Mellon University). Gaussian is a federally registered
 trademark of Gaussian, Inc.
  
 This software contains proprietary and confidential information,
 including trade secrets, belonging to Gaussian, Inc.
  
 This software is provided under written license and may be
 used, copied, transmitted, or stored only in accord with that
 written license.
  
 The following legend is applicable only to US Government
 contracts under FAR:
  
                    RESTRICTED RIGHTS LEGEND
  
 Use, reproduction and disclosure by the US Government is
 subject to restrictions as set forth in subparagraphs (a)
 and (c) of the Commercial Computer Software - Restricted
 Rights clause in FAR 52.227-19.
  
 Gaussian, Inc.
 340 Quinnipiac St., Bldg. 40, Wallingford CT 06492
  
  
 ---------------------------------------------------------------
 Warning -- This program may not be used in any manner that
 competes with the business of Gaussian, Inc. or will provide
 assistance to any competitor of Gaussian, Inc.  The licensee
 of this program is prohibited from giving any competitor of
 Gaussian, Inc. access to this program.  By using this program,
 the user acknowledges that Gaussian, Inc. is engaged in the
 business of creating and licensing software in the field of
 computational chemistry and represents and warrants to the
 licensee that it is not a competitor of Gaussian, Inc. and that
 it will not use this program in any manner prohibited above.
 ---------------------------------------------------------------
  

 Cite this work as:
 Gaussian 09, Revision D.01,
 M. J. Frisch, G. W. Trucks, H. B. Schlegel, G. E. Scuseria, 
 M. A. Robb, J. R. Cheeseman, G. Scalmani, V. Barone, B. Mennucci, 
 G. A. Petersson, H. Nakatsuji, M. Caricato, X. Li, H. P. Hratchian, 
 A. F. Izmaylov, J. Bloino, G. Zheng, J. L. Sonnenberg, M. Hada, 
 M. Ehara, K. Toyota, R. Fukuda, J. Hasegawa, M. Ishida, T. Nakajima, 
 Y. Honda, O. Kitao, H. Nakai, T. Vreven, J. A. Montgomery, Jr., 
 J. E. Peralta, F. Ogliaro, M. Bearpark, J. J. Heyd, E. Brothers, 
 K. N. Kudin, V. N. Staroverov, T. Keith, R. Kobayashi, J. Normand, 
 K. Raghavachari, A. Rendell, J. C. Burant, S. S. Iyengar, J. Tomasi, 
 M. Cossi, N. Rega, J. M. Millam, M. Klene, J. E. Knox, J. B. Cross, 
 V. Bakken, C. Adamo, J. Jaramillo, R. Gomperts, R. E. Stratmann, 
 O. Yazyev, A. J. Austin, R. Cammi, C. Pomelli, J. W. Ochterski, 
 R. L. Martin, K. Morokuma, V. G. Zakrzewski, G. A. Voth, 
 P. Salvador, J. J. Dannenberg, S. Dapprich, A. D. Daniels, 
 O. Farkas, J. B. Foresman, J. V. Ortiz, J. Cioslowski, 
 and D. J. Fox, Gaussian, Inc., Wallingford CT, 2013.
 
 ******************************************
 Gaussian 09:  ES64L-G09RevD.01 24-Apr-2013
                29-Apr-2026 
 ******************************************
 -----------------------------------------------
 #P RHF/def2SVP Pop(Full,ESP) GFInput IOP(6/7=3)
 -----------------------------------------------
 1/38=1/1;
 2/12=2,17=6,18=5,40=1/2;
 3/5=43,7=101,11=1,16=1,24=10,25=1,30=1,116=1/1,2,3;
 4//1;
 5/5=2,38=5/2;
 6/7=3,15=8,28=1/1,2;
 99/5=1,9=1/99;
 Leave Link    1 at Wed Apr 29 13:39:53 2026, MaxMem=           0 cpu:         0.0
 (Enter /opt/g09/g09/l101.exe)
 ------------------------------------------
 ESP dla struktury zoptymalizowanej z wodą
 ------------------------------------------
 Symbolic Z-matrix:
 Charge =  0 Multiplicity = 1
 c
 c                    1    cc2
 n                    2    nc3      1    ncc3
 c                    1    cc4      2    ccc4     3    dih4     0
 o                    4    oc5      1    occ5     2    dih5     0
 o                    4    oc6      1    occ6     2    dih6     0
 h                    3    hn7      2    hnc7     1    dih7     0
 h                    3    hn8      2    hnc8     1    dih8     0
 h                    3    hn9      2    hnc9     1    dih9     0
 h                    2    hc10     1    hcc10    4    dih10    0
 h                    2    hc11     1    hcc11    4    dih11    0
 h                    1    hc12     4    hcc12    6    dih12    0
 h                    1    hc13     4    hcc13    6    dih13    0
       Variables:
  cc2                   1.52098                  
  nc3                   1.48567                  
  ncc3                110.25                     
  cc4                   1.54028                  
  ccc4                114.58                     
  dih4                 56.546                    
  oc5                   1.2484                   
  occ5                116.114                    
  dih5                -26.52                     
  oc6                   1.21985                  
  occ6                117.066                    
  dih6                155.191                    
  hn7                   1.01068                  
  hnc7                112.381                    
  dih7                 70.944                    
  hn8                   1.00978                  
  hnc8                112.705                    
  dih8               -167.202                    
  hn9                   1.03652                  
  hnc9                104.438                    
  dih9                -46.75                     
  hc10                  1.08651                  
  hcc10               112.094                    
  dih10               177.526                    
  hc11                  1.08701                  
  hcc11               110.981                    
  dih11               -61.08                     
  hc12                  1.09429                  
  hcc12               107.571                    
  dih12               -82.                       
  hc13                  1.08883                  
  hcc13               109.125                    
  dih13                33.019                    
 
 NAtoms=     13 NQM=       13 NQMF=       0 NMMI=      0 NMMIF=      0
                NMic=       0 NMicF=      0.
                    Isotopes and Nuclear Properties:
 (Nuclear quadrupole moments (NQMom) in fm**2, nuclear magnetic moments (NMagM)
  in nuclear magnetons)

  Atom         1           2           3           4           5           6           7           8           9          10
 IAtWgt=          12          12          14          12          16          16           1           1           1           1
 AtmWgt=  12.0000000  12.0000000  14.0030740  12.0000000  15.9949146  15.9949146   1.0078250   1.0078250   1.0078250   1.0078250
 NucSpn=           0           0           2           0           0           0           1           1           1           1
 AtZEff=   0.0000000   0.0000000   0.0000000   0.0000000   0.0000000   0.0000000   0.0000000   0.0000000   0.0000000   0.0000000
 NQMom=    0.0000000   0.0000000   2.0440000   0.0000000   0.0000000   0.0000000   0.0000000   0.0000000   0.0000000   0.0000000
 NMagM=    0.0000000   0.0000000   0.4037610   0.0000000   0.0000000   0.0000000   2.7928460   2.7928460   2.7928460   2.7928460
 AtZNuc=   6.0000000   6.0000000   7.0000000   6.0000000   8.0000000   8.0000000   1.0000000   1.0000000   1.0000000   1.0000000

  Atom        11          12          13
 IAtWgt=           1           1           1
 AtmWgt=   1.0078250   1.0078250   1.0078250
 NucSpn=           1           1           1
 AtZEff=   0.0000000   0.0000000   0.0000000
 NQMom=    0.0000000   0.0000000   0.0000000
 NMagM=    2.7928460   2.7928460   2.7928460
 AtZNuc=   1.0000000   1.0000000   1.0000000
 Leave Link  101 at Wed Apr 29 13:39:53 2026, MaxMem=    33554432 cpu:         0.1
 (Enter /opt/g09/g09/l202.exe)
                          Input orientation:                          
 ---------------------------------------------------------------------
 Center     Atomic      Atomic             Coordinates (Angstroms)
 Number     Number       Type             X           Y           Z
 ---------------------------------------------------------------------
      1          6           0        0.000000    0.000000    0.000000
      2          6           0        0.000000    0.000000    1.520984
      3          7           0        1.393843    0.000000    2.035200
      4          6           0        0.772159   -1.168642   -0.640698
      5          8           0        1.695227   -1.657732    0.042857
      6          8           0        0.444037   -1.498840   -1.768239
      7          1           0        1.860496    0.883336    1.882132
      8          1           0        1.445106   -0.206346    3.022338
      9          1           0        1.874356   -0.731124    1.479387
     10          1           0       -0.518200    0.863112    1.929650
     11          1           0       -0.470625   -0.899229    1.910196
     12          1           0        0.436326    0.930183   -0.376628
     13          1           0       -1.030953   -0.019267   -0.349736
 ---------------------------------------------------------------------
                    Distance matrix (angstroms):
                    1          2          3          4          5
     1  C    0.000000
     2  C    1.520984   0.000000
     3  N    2.466746   1.485670   0.000000
     4  C    1.540275   2.575815   2.985405   0.000000
     5  O    2.371436   2.794053   2.609279   1.248404   0.000000
     6  O    2.360161   3.641796   4.196999   1.219854   2.206987
     7  H    2.790009   2.090970   1.010682   3.429252   3.141222
     8  H    3.356402   2.094033   1.009776   3.846648   3.323611
     9  H    2.497266   2.012332   1.036515   2.429201   1.718810
    10  H    2.176475   1.086509   2.100479   3.521326   3.848884
    11  H    2.163088   1.087008   2.073759   2.850291   2.958581
    12  H    1.094289   2.157904   2.756627   2.141864   2.908282
    13  H    1.088830   2.136078   3.401165   2.157993   3.204802
                    6          7          8          9         10
     6  O    0.000000
     7  H    4.583267   0.000000
     8  H    5.061848   1.630958   0.000000
     9  H    3.630740   1.663995   1.685332   0.000000
    10  H    4.492116   2.379257   2.488429   2.910094   0.000000
    11  H    3.837581   2.934698   2.320985   2.390144   1.763090
    12  H    2.799428   2.670666   3.723211   2.876223   2.496905
    13  H    2.525249   3.762500   4.187690   3.506173   2.497421
                   11         12         13
    11  H    0.000000
    12  H    3.065758   0.000000
    13  H    2.489095   1.747880   0.000000
 Stoichiometry    C3H7NO2
 Framework group  C1[X(C3H7NO2)]
 Deg. of freedom    33
 Full point group                 C1      NOp   1
 Largest Abelian subgroup         C1      NOp   1
 Largest concise Abelian subgroup C1      NOp   1
                         Standard orientation:                         
 ---------------------------------------------------------------------
 Center     Atomic      Atomic             Coordinates (Angstroms)
 Number     Number       Type             X           Y           Z
 ---------------------------------------------------------------------
      1          6           0        0.048950    1.006842    0.219808
      2          6           0       -1.328405    0.721009   -0.358625
      3          7           0       -1.865731   -0.548234    0.195918
      4          6           0        1.081526   -0.114725   -0.000013
      5          8           0        0.621000   -1.267654   -0.131098
      6          8           0        2.258501    0.205837    0.003848
      7          1           0       -2.123061   -0.464300    1.169681
      8          1           0       -2.675401   -0.881464   -0.307112
      9          1           0       -1.079255   -1.218625    0.115954
     10          1           0       -2.035268    1.517662   -0.143704
     11          1           0       -1.278024    0.587983   -1.436286
     12          1           0       -0.024097    1.182048    1.297507
     13          1           0        0.426783    1.930118   -0.216489
 ---------------------------------------------------------------------
 Rotational constants (GHZ):      7.4701899      2.5511027      2.0277549
 Leave Link  202 at Wed Apr 29 13:39:53 2026, MaxMem=    33554432 cpu:         0.0
 (Enter /opt/g09/g09/l301.exe)
 Standard basis: def2SVP (5D, 7F)
 Ernie: Thresh=  0.10000D-02 Tol=  0.10000D-05 Strict=F.
 AO basis set in the form of general basis input (Overlap normalization):
      1 0
 S   5 1.00       0.000000000000
      0.1238401694D+04  0.5517365048D-02
      0.1862900499D+03  0.4108882856D-01
      0.4225117635D+02  0.1822538213D+00
      0.1167655793D+02  0.4682845944D+00
      0.3593050648D+01  0.4457581734D+00
 S   1 1.00       0.000000000000
      0.4024514736D+00  0.1000000000D+01
 S   1 1.00       0.000000000000
      0.1309018267D+00  0.1000000000D+01
 P   3 1.00       0.000000000000
      0.9468097062D+01  0.5688833201D-01
      0.2010354514D+01  0.3129405934D+00
      0.5477100471D+00  0.7606501651D+00
 P   1 1.00       0.000000000000
      0.1526861379D+00  0.1000000000D+01
 D   1 1.00       0.000000000000
      0.8000000000D+00  0.1000000000D+01
 ****
      2 0
 S   5 1.00       0.000000000000
      0.1238401694D+04  0.5517365048D-02
      0.1862900499D+03  0.4108882856D-01
      0.4225117635D+02  0.1822538213D+00
      0.1167655793D+02  0.4682845944D+00
      0.3593050648D+01  0.4457581734D+00
 S   1 1.00       0.000000000000
      0.4024514736D+00  0.1000000000D+01
 S   1 1.00       0.000000000000
      0.1309018267D+00  0.1000000000D+01
 P   3 1.00       0.000000000000
      0.9468097062D+01  0.5688833201D-01
      0.2010354514D+01  0.3129405934D+00
      0.5477100471D+00  0.7606501651D+00
 P   1 1.00       0.000000000000
      0.1526861379D+00  0.1000000000D+01
 D   1 1.00       0.000000000000
      0.8000000000D+00  0.1000000000D+01
 ****
      3 0
 S   5 1.00       0.000000000000
      0.1712841585D+04 -0.5447799580D-02
      0.2576481268D+03 -0.4062717463D-01
      0.5845824585D+02 -0.1811196225D+00
      0.1619836791D+02 -0.4684397556D+00
      0.5005260081D+01 -0.4461684629D+00
 S   1 1.00       0.000000000000
      0.5873185657D+00  0.1000000000D+01
 S   1 1.00       0.000000000000
      0.1876459225D+00  0.1000000000D+01
 P   3 1.00       0.000000000000
      0.1357147023D+02 -0.5884811697D-01
      0.2925737287D+01 -0.3202462476D+00
      0.7992775075D+00 -0.7532822652D+00
 P   1 1.00       0.000000000000
      0.2195434803D+00  0.1000000000D+01
 D   1 1.00       0.000000000000
      0.1000000000D+01  0.1000000000D+01
 ****
      4 0
 S   5 1.00       0.000000000000
      0.1238401694D+04  0.5517365048D-02
      0.1862900499D+03  0.4108882856D-01
      0.4225117635D+02  0.1822538213D+00
      0.1167655793D+02  0.4682845944D+00
      0.3593050648D+01  0.4457581734D+00
 S   1 1.00       0.000000000000
      0.4024514736D+00  0.1000000000D+01
 S   1 1.00       0.000000000000
      0.1309018267D+00  0.1000000000D+01
 P   3 1.00       0.000000000000
      0.9468097062D+01  0.5688833201D-01
      0.2010354514D+01  0.3129405934D+00
      0.5477100471D+00  0.7606501651D+00
 P   1 1.00       0.000000000000
      0.1526861379D+00  0.1000000000D+01
 D   1 1.00       0.000000000000
      0.8000000000D+00  0.1000000000D+01
 ****
      5 0
 S   5 1.00       0.000000000000
      0.2266176779D+04 -0.5389350392D-02
      0.3408701019D+03 -0.4023472139D-01
      0.7736313517D+02 -0.1800818421D+00
      0.2147964494D+02 -0.4682885766D+00
      0.6658943312D+01 -0.4469261716D+00
 S   1 1.00       0.000000000000
      0.8097597567D+00  0.1000000000D+01
 S   1 1.00       0.000000000000
      0.2553077223D+00  0.1000000000D+01
 P   3 1.00       0.000000000000
      0.1772150432D+02  0.6263024876D-01
      0.3863550544D+01  0.3333113848D+00
      0.1048092088D+01  0.7414863831D+00
 P   1 1.00       0.000000000000
      0.2764154441D+00  0.1000000000D+01
 D   1 1.00       0.000000000000
      0.1200000000D+01  0.1000000000D+01
 ****
      6 0
 S   5 1.00       0.000000000000
      0.2266176779D+04 -0.5389350392D-02
      0.3408701019D+03 -0.4023472139D-01
      0.7736313517D+02 -0.1800818421D+00
      0.2147964494D+02 -0.4682885766D+00
      0.6658943312D+01 -0.4469261716D+00
 S   1 1.00       0.000000000000
      0.8097597567D+00  0.1000000000D+01
 S   1 1.00       0.000000000000
      0.2553077223D+00  0.1000000000D+01
 P   3 1.00       0.000000000000
      0.1772150432D+02  0.6263024876D-01
      0.3863550544D+01  0.3333113848D+00
      0.1048092088D+01  0.7414863831D+00
 P   1 1.00       0.000000000000
      0.2764154441D+00  0.1000000000D+01
 D   1 1.00       0.000000000000
      0.1200000000D+01  0.1000000000D+01
 ****
      7 0
 S   3 1.00       0.000000000000
      0.1301070100D+02  0.3348548481D-01
      0.1962257200D+01  0.2347218709D+00
      0.4445379600D+00  0.8137702853D+00
 S   1 1.00       0.000000000000
      0.1219496200D+00  0.1000000000D+01
 P   1 1.00       0.000000000000
      0.8000000000D+00  0.1000000000D+01
 ****
      8 0
 S   3 1.00       0.000000000000
      0.1301070100D+02  0.3348548481D-01
      0.1962257200D+01  0.2347218709D+00
      0.4445379600D+00  0.8137702853D+00
 S   1 1.00       0.000000000000
      0.1219496200D+00  0.1000000000D+01
 P   1 1.00       0.000000000000
      0.8000000000D+00  0.1000000000D+01
 ****
      9 0
 S   3 1.00       0.000000000000
      0.1301070100D+02  0.3348548481D-01
      0.1962257200D+01  0.2347218709D+00
      0.4445379600D+00  0.8137702853D+00
 S   1 1.00       0.000000000000
      0.1219496200D+00  0.1000000000D+01
 P   1 1.00       0.000000000000
      0.8000000000D+00  0.1000000000D+01
 ****
     10 0
 S   3 1.00       0.000000000000
      0.1301070100D+02  0.3348548481D-01
      0.1962257200D+01  0.2347218709D+00
      0.4445379600D+00  0.8137702853D+00
 S   1 1.00       0.000000000000
      0.1219496200D+00  0.1000000000D+01
 P   1 1.00       0.000000000000
      0.8000000000D+00  0.1000000000D+01
 ****
     11 0
 S   3 1.00       0.000000000000
      0.1301070100D+02  0.3348548481D-01
      0.1962257200D+01  0.2347218709D+00
      0.4445379600D+00  0.8137702853D+00
 S   1 1.00       0.000000000000
      0.1219496200D+00  0.1000000000D+01
 P   1 1.00       0.000000000000
      0.8000000000D+00  0.1000000000D+01
 ****
     12 0
 S   3 1.00       0.000000000000
      0.1301070100D+02  0.3348548481D-01
      0.1962257200D+01  0.2347218709D+00
      0.4445379600D+00  0.8137702853D+00
 S   1 1.00       0.000000000000
      0.1219496200D+00  0.1000000000D+01
 P   1 1.00       0.000000000000
      0.8000000000D+00  0.1000000000D+01
 ****
     13 0
 S   3 1.00       0.000000000000
      0.1301070100D+02  0.3348548481D-01
      0.1962257200D+01  0.2347218709D+00
      0.4445379600D+00  0.8137702853D+00
 S   1 1.00       0.000000000000
      0.1219496200D+00  0.1000000000D+01
 P   1 1.00       0.000000000000
      0.8000000000D+00  0.1000000000D+01
 ****

 There are   125 symmetry adapted cartesian basis functions of A   symmetry.
 There are   119 symmetry adapted basis functions of A   symmetry.
   119 basis functions,   199 primitive gaussians,   125 cartesian basis functions
    24 alpha electrons       24 beta electrons
       nuclear repulsion energy       249.7146369702 Hartrees.
 IExCor=    0 DFT=F Ex=HF Corr=None ExCW=0 ScaHFX=  1.000000
 ScaDFX=  1.000000  1.000000  1.000000  1.000000 ScalE2=  1.000000  1.000000
 IRadAn=      0 IRanWt=     -1 IRanGd=            0 ICorTp=0 IEmpDi=  4
 NAtoms=   13 NActive=   13 NUniq=   13 SFac= 1.00D+00 NAtFMM=   60 NAOKFM=F Big=F
 Integral buffers will be    131072 words long.
 Raffenetti 1 integral format.
 Two-electron integral symmetry is turned on.
 Leave Link  301 at Wed Apr 29 13:39:53 2026, MaxMem=    33554432 cpu:         0.0
 (Enter /opt/g09/g09/l302.exe)
 NPDir=0 NMtPBC=     1 NCelOv=     1 NCel=       1 NClECP=     1 NCelD=      1
         NCelK=      1 NCelE2=     1 NClLst=     1 CellRange=     0.0.
 One-electron integrals computed using PRISM.
   1 Symmetry operations used in ECPInt.
 ECPInt:  NShTT=    1653 NPrTT=    5877 LenC2=    1646 LenP2D=    4946.
 LDataN:  DoStor=T MaxTD1= 4 Len=   56
 NBasis=   119 RedAO= T EigKep=  2.16D-03  NBF=   119
 NBsUse=   119 1.00D-06 EigRej= -1.00D+00 NBFU=   119
 Leave Link  302 at Wed Apr 29 13:39:53 2026, MaxMem=    33554432 cpu:         0.0
 (Enter /opt/g09/g09/l303.exe)
 DipDrv:  MaxL=1.
 Leave Link  303 at Wed Apr 29 13:39:53 2026, MaxMem=    33554432 cpu:         0.0
 (Enter /opt/g09/g09/l401.exe)
 ExpMin= 1.22D-01 ExpMax= 2.27D+03 ExpMxC= 3.41D+02 IAcc=1 IRadAn=         1 AccDes= 0.00D+00
 Harris functional with IExCor=  205 and IRadAn=       1 diagonalized for initial guess.
 HarFok:  IExCor=  205 AccDes= 0.00D+00 IRadAn=         1 IDoV= 1 UseB2=F ITyADJ=14
 ICtDFT=  3500011 ScaDFX=  1.000000  1.000000  1.000000  1.000000
 FoFCou: FMM=F IPFlag=           0 FMFlag=      100000 FMFlg1=           0
         NFxFlg=           0 DoJE=T BraDBF=F KetDBF=T FulRan=T
         wScrn=  0.000000 ICntrl=     500 IOpCl=  0 I1Cent=   200000004 NGrid=           0
         NMat0=    1 NMatS0=      1 NMatT0=    0 NMatD0=    1 NMtDS0=    0 NMtDT0=    0
 Petite list used in FoFCou.
 Harris En= -322.020428452239    
 JPrj=0 DoOrth=F DoCkMO=F.
 Leave Link  401 at Wed Apr 29 13:39:53 2026, MaxMem=    33554432 cpu:         0.1
 (Enter /opt/g09/g09/l502.exe)
 Closed shell SCF:
 Using DIIS extrapolation, IDIIS=  1040.
 Integral symmetry usage will be decided dynamically.
 Keep R1 ints in memory in canonical form, NReq=26560622.
 IVT=       67127 IEndB=       67127 NGot=    33554432 MDV=     7993936
 LenX=     7993936 LenY=     7977870
 Requested convergence on RMS density matrix=1.00D-08 within 128 cycles.
 Requested convergence on MAX density matrix=1.00D-06.
 Requested convergence on             energy=1.00D-06.
 No special actions if energy rises.
 FoFCou: FMM=F IPFlag=           0 FMFlag=           0 FMFlg1=           0
         NFxFlg=           0 DoJE=F BraDBF=F KetDBF=F FulRan=T
         wScrn=  0.000000 ICntrl=     600 IOpCl=  0 I1Cent=           0 NGrid=           0
         NMat0=    1 NMatS0=   7140 NMatT0=    0 NMatD0=    1 NMtDS0=    0 NMtDT0=    0
 Symmetry not used in FoFCou.

 Cycle   1  Pass 1  IDiag  1:
 E= -321.326538121225    
 DIIS: error= 5.15D-02 at cycle   1 NSaved=   1.
 NSaved= 1 IEnMin= 1 EnMin= -321.326538121225     IErMin= 1 ErrMin= 5.15D-02
 ErrMax= 5.15D-02  0.00D+00 EMaxC= 1.00D-01 BMatC= 3.55D-01 BMatP= 3.55D-01
 IDIUse=3 WtCom= 4.85D-01 WtEn= 5.15D-01
 Coeff-Com:  0.100D+01
 Coeff-En:   0.100D+01
 Coeff:      0.100D+01
 Gap=     0.612 Goal=   None    Shift=    0.000
 GapD=    0.612 DampG=2.000 DampE=0.500 DampFc=1.0000 IDamp=-1.
 RMSDP=7.75D-03 MaxDP=2.65D-01              OVMax= 1.17D-01

 Cycle   2  Pass 1  IDiag  1:
 E= -321.536482577717     Delta-E=       -0.209944456492 Rises=F Damp=F
 DIIS: error= 2.61D-02 at cycle   2 NSaved=   2.
 NSaved= 2 IEnMin= 2 EnMin= -321.536482577717     IErMin= 2 ErrMin= 2.61D-02
 ErrMax= 2.61D-02  0.00D+00 EMaxC= 1.00D-01 BMatC= 5.89D-02 BMatP= 3.55D-01
 IDIUse=3 WtCom= 7.39D-01 WtEn= 2.61D-01
 Coeff-Com:  0.247D+00 0.753D+00
 Coeff-En:   0.000D+00 0.100D+01
 Coeff:      0.182D+00 0.818D+00
 Gap=     0.468 Goal=   None    Shift=    0.000
 RMSDP=3.31D-03 MaxDP=1.51D-01 DE=-2.10D-01 OVMax= 4.38D-02

 Cycle   3  Pass 1  IDiag  1:
 E= -321.577510417585     Delta-E=       -0.041027839868 Rises=F Damp=F
 DIIS: error= 7.08D-03 at cycle   3 NSaved=   3.
 NSaved= 3 IEnMin= 3 EnMin= -321.577510417585     IErMin= 3 ErrMin= 7.08D-03
 ErrMax= 7.08D-03  0.00D+00 EMaxC= 1.00D-01 BMatC= 5.13D-03 BMatP= 5.89D-02
 IDIUse=3 WtCom= 9.29D-01 WtEn= 7.08D-02
 Coeff-Com: -0.181D-01 0.191D+00 0.827D+00
 Coeff-En:   0.000D+00 0.000D+00 0.100D+01
 Coeff:     -0.168D-01 0.177D+00 0.840D+00
 Gap=     0.447 Goal=   None    Shift=    0.000
 RMSDP=5.81D-04 MaxDP=1.50D-02 DE=-4.10D-02 OVMax= 1.41D-02

 Cycle   4  Pass 1  IDiag  1:
 E= -321.581119145485     Delta-E=       -0.003608727900 Rises=F Damp=F
 DIIS: error= 1.18D-03 at cycle   4 NSaved=   4.
 NSaved= 4 IEnMin= 4 EnMin= -321.581119145485     IErMin= 4 ErrMin= 1.18D-03
 ErrMax= 1.18D-03  0.00D+00 EMaxC= 1.00D-01 BMatC= 2.49D-04 BMatP= 5.13D-03
 IDIUse=3 WtCom= 9.88D-01 WtEn= 1.18D-02
 Coeff-Com: -0.119D-01 0.189D-01 0.225D+00 0.769D+00
 Coeff-En:   0.000D+00 0.000D+00 0.000D+00 0.100D+01
 Coeff:     -0.118D-01 0.187D-01 0.222D+00 0.771D+00
 Gap=     0.446 Goal=   None    Shift=    0.000
 RMSDP=1.63D-04 MaxDP=3.04D-03 DE=-3.61D-03 OVMax= 3.39D-03

 Cycle   5  Pass 1  IDiag  1:
 E= -321.581371059833     Delta-E=       -0.000251914348 Rises=F Damp=F
 DIIS: error= 3.79D-04 at cycle   5 NSaved=   5.
 NSaved= 5 IEnMin= 5 EnMin= -321.581371059833     IErMin= 5 ErrMin= 3.79D-04
 ErrMax= 3.79D-04  0.00D+00 EMaxC= 1.00D-01 BMatC= 1.71D-05 BMatP= 2.49D-04
 IDIUse=3 WtCom= 9.96D-01 WtEn= 3.79D-03
 Coeff-Com:  0.222D-02-0.200D-01-0.103D+00-0.239D-01 0.114D+01
 Coeff-En:   0.000D+00 0.000D+00 0.000D+00 0.000D+00 0.100D+01
 Coeff:      0.221D-02-0.199D-01-0.103D+00-0.238D-01 0.114D+01
 Gap=     0.447 Goal=   None    Shift=    0.000
 RMSDP=7.98D-05 MaxDP=1.21D-03 DE=-2.52D-04 OVMax= 2.10D-03

 Cycle   6  Pass 1  IDiag  1:
 E= -321.581403268451     Delta-E=       -0.000032208618 Rises=F Damp=F
 DIIS: error= 1.06D-04 at cycle   6 NSaved=   6.
 NSaved= 6 IEnMin= 6 EnMin= -321.581403268451     IErMin= 6 ErrMin= 1.06D-04
 ErrMax= 1.06D-04  0.00D+00 EMaxC= 1.00D-01 BMatC= 1.74D-06 BMatP= 1.71D-05
 IDIUse=3 WtCom= 9.99D-01 WtEn= 1.06D-03
 Coeff-Com:  0.120D-02-0.572D-02-0.361D-01-0.546D-01 0.232D+00 0.864D+00
 Coeff-En:   0.000D+00 0.000D+00 0.000D+00 0.000D+00 0.000D+00 0.100D+01
 Coeff:      0.119D-02-0.571D-02-0.360D-01-0.545D-01 0.231D+00 0.864D+00
 Gap=     0.447 Goal=   None    Shift=    0.000
 RMSDP=2.33D-05 MaxDP=4.27D-04 DE=-3.22D-05 OVMax= 5.61D-04

 Cycle   7  Pass 1  IDiag  1:
 E= -321.581405706582     Delta-E=       -0.000002438132 Rises=F Damp=F
 DIIS: error= 4.78D-05 at cycle   7 NSaved=   7.
 NSaved= 7 IEnMin= 7 EnMin= -321.581405706582     IErMin= 7 ErrMin= 4.78D-05
 ErrMax= 4.78D-05  0.00D+00 EMaxC= 1.00D-01 BMatC= 2.27D-07 BMatP= 1.74D-06
 IDIUse=1 WtCom= 1.00D+00 WtEn= 0.00D+00
 Coeff-Com: -0.172D-04 0.155D-02 0.708D-02-0.865D-02-0.105D+00 0.151D+00
 Coeff-Com:  0.953D+00
 Coeff:     -0.172D-04 0.155D-02 0.708D-02-0.865D-02-0.105D+00 0.151D+00
 Coeff:      0.953D+00
 Gap=     0.447 Goal=   None    Shift=    0.000
 RMSDP=9.21D-06 MaxDP=2.21D-04 DE=-2.44D-06 OVMax= 4.25D-04

 Cycle   8  Pass 1  IDiag  1:
 E= -321.581406205784     Delta-E=       -0.000000499201 Rises=F Damp=F
 DIIS: error= 1.74D-05 at cycle   8 NSaved=   8.
 NSaved= 8 IEnMin= 8 EnMin= -321.581406205784     IErMin= 8 ErrMin= 1.74D-05
 ErrMax= 1.74D-05  0.00D+00 EMaxC= 1.00D-01 BMatC= 4.43D-08 BMatP= 2.27D-07
 IDIUse=1 WtCom= 1.00D+00 WtEn= 0.00D+00
 Coeff-Com: -0.165D-03 0.836D-03 0.532D-02 0.677D-02-0.301D-01-0.158D+00
 Coeff-Com:  0.771D-01 0.110D+01
 Coeff:     -0.165D-03 0.836D-03 0.532D-02 0.677D-02-0.301D-01-0.158D+00
 Coeff:      0.771D-01 0.110D+01
 Gap=     0.447 Goal=   None    Shift=    0.000
 RMSDP=4.92D-06 MaxDP=7.62D-05 DE=-4.99D-07 OVMax= 1.60D-04

 Cycle   9  Pass 1  IDiag  1:
 E= -321.581406302470     Delta-E=       -0.000000096687 Rises=F Damp=F
 DIIS: error= 4.44D-06 at cycle   9 NSaved=   9.
 NSaved= 9 IEnMin= 9 EnMin= -321.581406302470     IErMin= 9 ErrMin= 4.44D-06
 ErrMax= 4.44D-06  0.00D+00 EMaxC= 1.00D-01 BMatC= 3.80D-09 BMatP= 4.43D-08
 IDIUse=1 WtCom= 1.00D+00 WtEn= 0.00D+00
 Coeff-Com: -0.163D-05-0.166D-03-0.766D-03 0.689D-03 0.136D-01-0.277D-01
 Coeff-Com: -0.724D-01-0.621D-01 0.115D+01
 Coeff:     -0.163D-05-0.166D-03-0.766D-03 0.689D-03 0.136D-01-0.277D-01
 Coeff:     -0.724D-01-0.621D-01 0.115D+01
 Gap=     0.447 Goal=   None    Shift=    0.000
 RMSDP=1.75D-06 MaxDP=3.16D-05 DE=-9.67D-08 OVMax= 7.13D-05

 Cycle  10  Pass 1  IDiag  1:
 E= -321.581406313978     Delta-E=       -0.000000011508 Rises=F Damp=F
 DIIS: error= 2.32D-06 at cycle  10 NSaved=  10.
 NSaved=10 IEnMin=10 EnMin= -321.581406313978     IErMin=10 ErrMin= 2.32D-06
 ErrMax= 2.32D-06  0.00D+00 EMaxC= 1.00D-01 BMatC= 5.68D-10 BMatP= 3.80D-09
 IDIUse=1 WtCom= 1.00D+00 WtEn= 0.00D+00
 Coeff-Com:  0.234D-04-0.124D-03-0.760D-03-0.105D-02 0.522D-02 0.175D-01
 Coeff-Com: -0.137D-02-0.177D+00 0.544D-01 0.110D+01
 Coeff:      0.234D-04-0.124D-03-0.760D-03-0.105D-02 0.522D-02 0.175D-01
 Coeff:     -0.137D-02-0.177D+00 0.544D-01 0.110D+01
 Gap=     0.447 Goal=   None    Shift=    0.000
 RMSDP=6.50D-07 MaxDP=1.25D-05 DE=-1.15D-08 OVMax= 2.48D-05

 Cycle  11  Pass 1  IDiag  1:
 E= -321.581406315439     Delta-E=       -0.000000001461 Rises=F Damp=F
 DIIS: error= 6.44D-07 at cycle  11 NSaved=  11.
 NSaved=11 IEnMin=11 EnMin= -321.581406315439     IErMin=11 ErrMin= 6.44D-07
 ErrMax= 6.44D-07  0.00D+00 EMaxC= 1.00D-01 BMatC= 4.15D-11 BMatP= 5.68D-10
 IDIUse=1 WtCom= 1.00D+00 WtEn= 0.00D+00
 Coeff-Com: -0.175D-05 0.224D-04 0.144D-03-0.215D-04-0.155D-02 0.193D-03
 Coeff-Com:  0.906D-02 0.195D-01-0.106D+00-0.131D+00 0.121D+01
 Coeff:     -0.175D-05 0.224D-04 0.144D-03-0.215D-04-0.155D-02 0.193D-03
 Coeff:      0.906D-02 0.195D-01-0.106D+00-0.131D+00 0.121D+01
 Gap=     0.447 Goal=   None    Shift=    0.000
 RMSDP=2.11D-07 MaxDP=6.26D-06 DE=-1.46D-09 OVMax= 6.35D-06

 Cycle  12  Pass 1  IDiag  1:
 E= -321.581406315550     Delta-E=       -0.000000000112 Rises=F Damp=F
 DIIS: error= 1.37D-07 at cycle  12 NSaved=  12.
 NSaved=12 IEnMin=12 EnMin= -321.581406315550     IErMin=12 ErrMin= 1.37D-07
 ErrMax= 1.37D-07  0.00D+00 EMaxC= 1.00D-01 BMatC= 3.65D-12 BMatP= 4.15D-11
 IDIUse=1 WtCom= 1.00D+00 WtEn= 0.00D+00
 Coeff-Com: -0.211D-05 0.115D-04 0.787D-04 0.829D-04-0.514D-03-0.172D-02
 Coeff-Com:  0.571D-03 0.174D-01-0.686D-02-0.119D+00 0.604D-01 0.105D+01
 Coeff:     -0.211D-05 0.115D-04 0.787D-04 0.829D-04-0.514D-03-0.172D-02
 Coeff:      0.571D-03 0.174D-01-0.686D-02-0.119D+00 0.604D-01 0.105D+01
 Gap=     0.447 Goal=   None    Shift=    0.000
 RMSDP=5.47D-08 MaxDP=1.37D-06 DE=-1.12D-10 OVMax= 1.27D-06

 Cycle  13  Pass 1  IDiag  1:
 E= -321.581406315558     Delta-E=       -0.000000000007 Rises=F Damp=F
 DIIS: error= 3.51D-08 at cycle  13 NSaved=  13.
 NSaved=13 IEnMin=13 EnMin= -321.581406315558     IErMin=13 ErrMin= 3.51D-08
 ErrMax= 3.51D-08  0.00D+00 EMaxC= 1.00D-01 BMatC= 2.97D-13 BMatP= 3.65D-12
 IDIUse=1 WtCom= 1.00D+00 WtEn= 0.00D+00
 Coeff-Com:  0.447D-07-0.120D-05-0.674D-05 0.404D-05 0.983D-04-0.100D-03
 Coeff-Com: -0.782D-03-0.712D-03 0.972D-02 0.309D-02-0.111D+00 0.846D-01
 Coeff-Com:  0.102D+01
 Coeff:      0.447D-07-0.120D-05-0.674D-05 0.404D-05 0.983D-04-0.100D-03
 Coeff:     -0.782D-03-0.712D-03 0.972D-02 0.309D-02-0.111D+00 0.846D-01
 Coeff:      0.102D+01
 Gap=     0.447 Goal=   None    Shift=    0.000
 RMSDP=1.49D-08 MaxDP=3.44D-07 DE=-7.28D-12 OVMax= 3.39D-07

 Cycle  14  Pass 1  IDiag  1:
 E= -321.581406315564     Delta-E=       -0.000000000007 Rises=F Damp=F
 DIIS: error= 9.36D-09 at cycle  14 NSaved=  14.
 NSaved=14 IEnMin=14 EnMin= -321.581406315564     IErMin=14 ErrMin= 9.36D-09
 ErrMax= 9.36D-09  0.00D+00 EMaxC= 1.00D-01 BMatC= 1.78D-14 BMatP= 2.97D-13
 IDIUse=1 WtCom= 1.00D+00 WtEn= 0.00D+00
 Coeff-Com:  0.153D-06-0.769D-06-0.513D-05-0.748D-05 0.248D-04 0.169D-03
 Coeff-Com:  0.615D-04-0.134D-02-0.103D-02 0.101D-01 0.919D-02-0.941D-01
 Coeff-Com: -0.137D+00 0.121D+01
 Coeff:      0.153D-06-0.769D-06-0.513D-05-0.748D-05 0.248D-04 0.169D-03
 Coeff:      0.615D-04-0.134D-02-0.103D-02 0.101D-01 0.919D-02-0.941D-01
 Coeff:     -0.137D+00 0.121D+01
 Gap=     0.447 Goal=   None    Shift=    0.000
 RMSDP=4.46D-09 MaxDP=1.10D-07 DE=-6.59D-12 OVMax= 1.20D-07

 SCF Done:  E(RHF) =  -321.581406316     A.U. after   14 cycles
            NFock= 14  Conv=0.45D-08     -V/T= 2.0033
 KE= 3.205115860650D+02 PE=-1.255566252516D+03 EE= 3.637586231654D+02
 Leave Link  502 at Wed Apr 29 13:39:54 2026, MaxMem=    33554432 cpu:         0.7
 (Enter /opt/g09/g09/l601.exe)
 Copying SCF densities to generalized density rwf, IOpCl= 0 IROHF=0.

 **********************************************************************

            Population analysis using the SCF density.

 **********************************************************************

 Orbital symmetries:
       Occupied  (A) (A) (A) (A) (A) (A) (A) (A) (A) (A) (A) (A)
                 (A) (A) (A) (A) (A) (A) (A) (A) (A) (A) (A) (A)
       Virtual   (A) (A) (A) (A) (A) (A) (A) (A) (A) (A) (A) (A)
                 (A) (A) (A) (A) (A) (A) (A) (A) (A) (A) (A) (A)
                 (A) (A) (A) (A) (A) (A) (A) (A) (A) (A) (A) (A)
                 (A) (A) (A) (A) (A) (A) (A) (A) (A) (A) (A) (A)
                 (A) (A) (A) (A) (A) (A) (A) (A) (A) (A) (A) (A)
                 (A) (A) (A) (A) (A) (A) (A) (A) (A) (A) (A) (A)
                 (A) (A) (A) (A) (A) (A) (A) (A) (A) (A) (A) (A)
                 (A) (A) (A) (A) (A) (A) (A) (A) (A) (A) (A)
 The electronic state is 1-A.
 Alpha  occ. eigenvalues --  -20.44882 -20.42766 -15.71805 -11.32591 -11.29364
 Alpha  occ. eigenvalues --  -11.23495  -1.34701  -1.32021  -1.21801  -1.05414
 Alpha  occ. eigenvalues --   -0.90332  -0.81433  -0.81050  -0.71086  -0.67587
 Alpha  occ. eigenvalues --   -0.61590  -0.59877  -0.57954  -0.56461  -0.53294
 Alpha  occ. eigenvalues --   -0.49419  -0.37611  -0.35341  -0.34997
 Alpha virt. eigenvalues --    0.09749   0.15219   0.17242   0.21440   0.22880
 Alpha virt. eigenvalues --    0.24079   0.28828   0.30776   0.32827   0.36659
 Alpha virt. eigenvalues --    0.42865   0.48545   0.54941   0.55150   0.56963
 Alpha virt. eigenvalues --    0.64324   0.66704   0.75300   0.77558   0.79165
 Alpha virt. eigenvalues --    0.82607   0.83425   0.84293   0.86306   0.87067
 Alpha virt. eigenvalues --    0.89856   0.90470   0.92035   0.92943   0.96358
 Alpha virt. eigenvalues --    1.01388   1.02924   1.04432   1.10051   1.22677
 Alpha virt. eigenvalues --    1.26634   1.30603   1.32758   1.36961   1.43963
 Alpha virt. eigenvalues --    1.45921   1.48969   1.50812   1.54335   1.56649
 Alpha virt. eigenvalues --    1.71543   1.73992   1.78528   1.80376   1.84875
 Alpha virt. eigenvalues --    1.91651   1.94355   1.97305   2.01264   2.01983
 Alpha virt. eigenvalues --    2.06417   2.08032   2.12097   2.14369   2.16152
 Alpha virt. eigenvalues --    2.17906   2.20903   2.24797   2.29729   2.31753
 Alpha virt. eigenvalues --    2.36257   2.41851   2.50953   2.56339   2.57171
 Alpha virt. eigenvalues --    2.63231   2.67278   2.74205   2.79459   2.80623
 Alpha virt. eigenvalues --    2.95200   3.01332   3.07666   3.09747   3.12366
 Alpha virt. eigenvalues --    3.12956   3.16848   3.24562   3.25676   3.30891
 Alpha virt. eigenvalues --    3.37564   3.42102   3.48541   3.62883   3.64956
 Alpha virt. eigenvalues --    3.65676   3.74693   3.88082   4.12332   4.21038
     Molecular Orbital Coefficients:
                           1         2         3         4         5
                           O         O         O         O         O
     Eigenvalues --   -20.44882 -20.42766 -15.71805 -11.32591 -11.29364
   1 1   C  1S         -0.00004  -0.00004  -0.00006   0.00320   0.00432
   2        2S          0.00031   0.00051   0.00086  -0.00102  -0.00033
   3        3S          0.00046  -0.00295  -0.00104   0.00863   0.00300
   4        4PX         0.00021   0.00004  -0.00024   0.00068  -0.00065
   5        4PY        -0.00025  -0.00006  -0.00017   0.00007   0.00058
   6        4PZ        -0.00011   0.00005  -0.00004   0.00024   0.00012
   7        5PX        -0.00547   0.00255  -0.00031  -0.00214   0.00180
   8        5PY        -0.00150   0.00220   0.00133  -0.00062  -0.00086
   9        5PZ        -0.00013  -0.00117  -0.00065  -0.00112   0.00010
  10        6D 0        0.00006  -0.00005   0.00000   0.00018   0.00043
  11        6D+1        0.00000  -0.00001   0.00005  -0.00041   0.00013
  12        6D-1        0.00004  -0.00002   0.00006  -0.00008  -0.00016
  13        6D+2       -0.00031   0.00035   0.00003  -0.00048   0.00001
  14        6D-2       -0.00006  -0.00018   0.00001  -0.00019   0.00077
  15 2   C  1S         -0.00003  -0.00004  -0.00017   0.99064   0.00021
  16        2S          0.00029   0.00087   0.00070   0.03797  -0.00090
  17        3S         -0.00534  -0.00056  -0.00999  -0.03050   0.00345
  18        4PX        -0.00006   0.00019   0.00006  -0.00067  -0.00013
  19        4PY        -0.00003  -0.00010  -0.00010  -0.00061   0.00016
  20        4PZ         0.00010   0.00001   0.00008  -0.00002   0.00003
  21        5PX        -0.00051  -0.00108   0.00123  -0.00275   0.00180
  22        5PY        -0.00061   0.00209   0.00309   0.00002  -0.00204
  23        5PZ        -0.00213   0.00164  -0.00113   0.00004  -0.00033
  24        6D 0       -0.00006   0.00008  -0.00023   0.00015  -0.00010
  25        6D+1       -0.00003   0.00003  -0.00016  -0.00009   0.00003
  26        6D-1       -0.00002   0.00000  -0.00044   0.00017   0.00003
  27        6D+2        0.00004  -0.00002  -0.00039  -0.00005   0.00007
  28        6D-2       -0.00011  -0.00004   0.00044  -0.00038  -0.00003
  29 3   N  1S         -0.00002   0.00001   0.99009  -0.00002  -0.00004
  30        2S         -0.00043  -0.00006  -0.03815  -0.00008  -0.00026
  31        3S          0.00233   0.00141   0.02260   0.00123  -0.00082
  32        4PX         0.00005  -0.00007  -0.00052   0.00011   0.00017
  33        4PY        -0.00016   0.00003  -0.00032   0.00035   0.00000
  34        4PZ         0.00004  -0.00002   0.00032  -0.00015   0.00003
  35        5PX         0.00009   0.00049   0.00248  -0.00018   0.00028
  36        5PY         0.00029  -0.00016   0.00342  -0.00093  -0.00023
  37        5PZ         0.00022  -0.00067  -0.00151   0.00006   0.00105
  38        6D 0        0.00005  -0.00004  -0.00031   0.00020   0.00004
  39        6D+1        0.00000   0.00001  -0.00016   0.00021  -0.00004
  40        6D-1        0.00002  -0.00001  -0.00044   0.00047   0.00001
  41        6D+2        0.00014   0.00004  -0.00060   0.00046  -0.00012
  42        6D-2        0.00012  -0.00001   0.00019  -0.00039  -0.00007
  43 4   C  1S         -0.00019  -0.00018  -0.00004  -0.00014   0.99089
  44        2S         -0.00089  -0.00144   0.00029  -0.00070   0.03633
  45        3S         -0.00580  -0.00661   0.00233  -0.00065  -0.00858
  46        4PX         0.00008   0.00041  -0.00008   0.00007  -0.00003
  47        4PY        -0.00011  -0.00014  -0.00016   0.00005  -0.00042
  48        4PZ        -0.00003   0.00003   0.00004   0.00003  -0.00006
  49        5PX         0.00668  -0.01362  -0.00095  -0.00165   0.00686
  50        5PY         0.01181  -0.00569   0.00017  -0.00112  -0.00484
  51        5PZ         0.00128  -0.00023  -0.00002  -0.00034  -0.00078
  52        6D 0       -0.00046  -0.00059  -0.00008  -0.00007  -0.00179
  53        6D+1        0.00012   0.00002  -0.00001   0.00008  -0.00004
  54        6D-1        0.00020   0.00001   0.00004  -0.00001   0.00037
  55        6D+2       -0.00082   0.00094   0.00008   0.00002   0.00021
  56        6D-2        0.00085   0.00084   0.00003  -0.00006   0.00088
  57 5   O  1S          0.99014   0.00307   0.00000  -0.00003   0.00031
  58        2S         -0.03614   0.00112   0.00001  -0.00024   0.00054
  59        3S          0.02705  -0.00545  -0.00023  -0.00021  -0.00490
  60        4PX        -0.00031  -0.00003   0.00003   0.00011   0.00009
  61        4PY        -0.00233   0.00024   0.00011  -0.00009  -0.00022
  62        4PZ        -0.00033   0.00005   0.00001   0.00005  -0.00006
  63        5PX         0.00087   0.00138  -0.00041  -0.00031  -0.00289
  64        5PY         0.00573  -0.00222  -0.00068   0.00025  -0.00336
  65        5PZ         0.00078  -0.00036  -0.00002  -0.00014  -0.00023
  66        6D 0        0.00012   0.00009   0.00003  -0.00008   0.00026
  67        6D+1       -0.00002   0.00004   0.00000   0.00004  -0.00002
  68        6D-1       -0.00004  -0.00007  -0.00002   0.00000  -0.00006
  69        6D+2        0.00013   0.00028   0.00008   0.00000   0.00012
  70        6D-2       -0.00012   0.00027   0.00001  -0.00003  -0.00018
  71 6   O  1S         -0.00284   0.99016   0.00000  -0.00003   0.00043
  72        2S          0.00128  -0.03604   0.00005  -0.00035   0.00083
  73        3S         -0.00525   0.02765  -0.00020   0.00176  -0.00730
  74        4PX        -0.00021   0.00260   0.00001   0.00000   0.00012
  75        4PY         0.00008   0.00061   0.00001   0.00002  -0.00022
  76        4PZ         0.00000  -0.00001  -0.00001  -0.00004  -0.00001
  77        5PX         0.00165  -0.00616   0.00017  -0.00041   0.00410
  78        5PY        -0.00173  -0.00130  -0.00001  -0.00007   0.00265
  79        5PZ        -0.00023   0.00003   0.00004   0.00016   0.00014
  80        6D 0        0.00007   0.00026   0.00001   0.00000   0.00010
  81        6D+1        0.00005   0.00000   0.00000   0.00000   0.00000
  82        6D-1        0.00000  -0.00003   0.00000   0.00000  -0.00003
  83        6D+2       -0.00017  -0.00015  -0.00004   0.00002   0.00003
  84        6D-2        0.00033  -0.00009  -0.00002   0.00000  -0.00001
  85 7   H  1S         -0.00034   0.00017   0.00161   0.00041  -0.00042
  86        2S          0.00022   0.00011  -0.00179   0.00081  -0.00021
  87        3PX         0.00007   0.00004   0.00039   0.00029  -0.00017
  88        3PY         0.00004   0.00001  -0.00051   0.00059  -0.00001
  89        3PZ         0.00003  -0.00002  -0.00226  -0.00024   0.00004
  90 8   H  1S         -0.00024  -0.00019   0.00186   0.00017   0.00039
  91        2S          0.00003   0.00009  -0.00166   0.00018   0.00013
  92        3PX         0.00001  -0.00006   0.00185   0.00012   0.00008
  93        3PY        -0.00010   0.00002   0.00057   0.00045   0.00008
  94        3PZ        -0.00009   0.00002   0.00146  -0.00025   0.00003
  95 9   H  1S         -0.00025  -0.00013   0.00093   0.00047  -0.00001
  96        2S         -0.00152  -0.00089  -0.00305   0.00001  -0.00005
  97        3PX        -0.00087   0.00023  -0.00164   0.00017   0.00015
  98        3PY        -0.00001  -0.00020   0.00099   0.00048   0.00027
  99        3PZ         0.00010  -0.00006   0.00024  -0.00027   0.00001
 100 10  H  1S          0.00043  -0.00039   0.00057  -0.00171   0.00034
 101        2S          0.00076  -0.00119   0.00102   0.00550   0.00058
 102        3PX        -0.00006  -0.00004   0.00003  -0.00063   0.00000
 103        3PY        -0.00002   0.00006  -0.00002   0.00090   0.00000
 104        3PZ         0.00013  -0.00003  -0.00002   0.00036  -0.00002
 105 11  H  1S         -0.00014   0.00047   0.00063  -0.00117  -0.00058
 106        2S          0.00035   0.00111   0.00124   0.00648  -0.00037
 107        3PX         0.00012   0.00007   0.00006   0.00030  -0.00006
 108        3PY        -0.00009  -0.00012   0.00007  -0.00025   0.00015
 109        3PZ         0.00011   0.00003   0.00002  -0.00098   0.00006
 110 12  H  1S         -0.00016   0.00041   0.00027  -0.00010   0.00002
 111        2S          0.00045   0.00143   0.00077   0.00007   0.00058
 112        3PX         0.00027   0.00000  -0.00016  -0.00031   0.00020
 113        3PY         0.00001  -0.00021  -0.00019  -0.00011  -0.00032
 114        3PZ        -0.00003  -0.00012  -0.00003  -0.00019  -0.00009
 115 13  H  1S          0.00038  -0.00009  -0.00015  -0.00008   0.00000
 116        2S          0.00049  -0.00050  -0.00087  -0.00014   0.00047
 117        3PX         0.00007   0.00012   0.00010  -0.00028   0.00019
 118        3PY         0.00019  -0.00020   0.00005  -0.00011  -0.00030
 119        3PZ         0.00015  -0.00005  -0.00002  -0.00013  -0.00008
                           6         7         8         9        10
                           O         O         O         O         O
     Eigenvalues --   -11.23495  -1.34701  -1.32021  -1.21801  -1.05414
   1 1   C  1S          0.99044  -0.03486  -0.01766  -0.00410  -0.16879
   2        2S          0.03969   0.06419   0.03528   0.00824   0.32826
   3        3S         -0.04075   0.01272  -0.01468  -0.00466   0.11441
   4        4PX        -0.00051  -0.00884   0.02728   0.01049  -0.06047
   5        4PY         0.00042  -0.02127  -0.01705   0.00837  -0.01753
   6        4PZ         0.00034  -0.00722  -0.00252   0.00037  -0.02825
   7        5PX         0.00062  -0.00935   0.00471  -0.00136  -0.03113
   8        5PY         0.00368  -0.00708  -0.00204   0.00166  -0.01521
   9        5PZ         0.00091  -0.00346   0.00242  -0.00056  -0.01592
  10        6D 0        0.00029  -0.00281  -0.00171  -0.00012  -0.00437
  11        6D+1       -0.00012   0.00144  -0.00148  -0.00024   0.00621
  12        6D-1       -0.00015   0.00131   0.00074  -0.00032   0.00189
  13        6D+2       -0.00024   0.00186  -0.00163   0.00164   0.00727
  14        6D-2        0.00026  -0.00092  -0.00492  -0.00045   0.00006
  15 2   C  1S         -0.00294  -0.08194   0.03990  -0.00605  -0.17754
  16        2S         -0.00095   0.15751  -0.07836   0.01262   0.35478
  17        3S          0.00823   0.01239   0.00197  -0.00135   0.07154
  18        4PX        -0.00061  -0.01783   0.02360  -0.00891   0.07126
  19        4PY        -0.00016  -0.06517   0.03794  -0.00501   0.03119
  20        4PZ        -0.00029   0.03184  -0.01631   0.00297   0.01898
  21        5PX         0.00281  -0.00276   0.00947  -0.00441   0.01860
  22        5PY         0.00124  -0.01205   0.00354   0.00206   0.01386
  23        5PZ         0.00060   0.00642  -0.00372   0.00092   0.00728
  24        6D 0        0.00021  -0.00500   0.00210  -0.00017  -0.00201
  25        6D+1       -0.00048  -0.00194   0.00241  -0.00074   0.00714
  26        6D-1       -0.00008  -0.00826   0.00481  -0.00081   0.00148
  27        6D+2       -0.00051  -0.00593   0.00483  -0.00066   0.00720
  28        6D-2       -0.00034   0.00826  -0.00543   0.00180   0.00208
  29 3   N  1S         -0.00006   0.21892  -0.13209   0.02497  -0.06901
  30        2S         -0.00083   0.43794  -0.26484   0.05029  -0.14489
  31        3S          0.00229   0.16363  -0.10680   0.02750  -0.04280
  32        4PX         0.00016  -0.00866  -0.00669   0.01356  -0.07267
  33        4PY         0.00013  -0.01429   0.00952  -0.00615  -0.11850
  34        4PZ         0.00006   0.00473  -0.00076  -0.00174   0.04617
  35        5PX         0.00177   0.00512  -0.00041  -0.00373   0.03214
  36        5PY         0.00094   0.02345  -0.01291   0.00258   0.05722
  37        5PZ         0.00097  -0.00846   0.00599  -0.00089  -0.02349
  38        6D 0       -0.00001  -0.00137   0.00023   0.00051  -0.00341
  39        6D+1       -0.00002  -0.00120   0.00043   0.00015  -0.00227
  40        6D-1        0.00001  -0.00253   0.00137  -0.00022  -0.00466
  41        6D+2        0.00003  -0.00220   0.00124  -0.00024  -0.00510
  42        6D-2        0.00005   0.00282  -0.00198   0.00100   0.00425
  43 4   C  1S         -0.00405  -0.08638  -0.15370  -0.01671  -0.01760
  44        2S         -0.00147   0.16745   0.29913   0.03505   0.03751
  45        3S          0.01037   0.01521   0.03433   0.01112   0.00694
  46        4PX         0.00037   0.00709   0.05762   0.21067  -0.06693
  47        4PY        -0.00048  -0.03899  -0.05786   0.17268   0.06789
  48        4PZ        -0.00006  -0.00493  -0.00850   0.01521   0.00977
  49        5PX        -0.00445  -0.00076  -0.00163   0.01727  -0.00654
  50        5PY         0.00282   0.00614   0.00432   0.01902   0.01645
  51        5PZ         0.00018   0.00198   0.00004   0.00212   0.00473
  52        6D 0        0.00041  -0.01079  -0.01876  -0.00147  -0.00130
  53        6D+1        0.00012   0.00065   0.00116  -0.00127  -0.00135
  54        6D-1       -0.00018   0.00208   0.00337  -0.00337   0.00095
  55        6D+2        0.00012   0.00026   0.00245   0.03071   0.00040
  56        6D-2        0.00061   0.01008   0.01861  -0.00255  -0.01077
  57 5   O  1S         -0.00002   0.10042   0.15138  -0.18779  -0.03594
  58        2S         -0.00021   0.19581   0.29339  -0.36621  -0.07283
  59        3S         -0.00019   0.12039   0.18562  -0.25051  -0.05012
  60        4PX         0.00001   0.00809   0.03613  -0.00435  -0.01482
  61        4PY        -0.00008   0.05169   0.08063  -0.07651   0.00518
  62        4PZ        -0.00006   0.00712   0.00942  -0.01027  -0.00070
  63        5PX         0.00014   0.00083   0.00018   0.01050  -0.00373
  64        5PY         0.00032   0.01587   0.02346  -0.02568   0.00307
  65        5PZ         0.00025   0.00196   0.00403  -0.00456  -0.00133
  66        6D 0       -0.00013  -0.00312  -0.00507   0.00438   0.00005
  67        6D+1       -0.00002   0.00029   0.00052   0.00004  -0.00011
  68        6D-1        0.00005   0.00113   0.00175  -0.00171   0.00003
  69        6D+2        0.00000  -0.00383  -0.00571   0.00576  -0.00106
  70        6D-2       -0.00003   0.00307   0.00614  -0.00196  -0.00179
  71 6   O  1S         -0.00003   0.06480   0.14813   0.20233  -0.02857
  72        2S         -0.00034   0.12633   0.28893   0.39646  -0.05753
  73        3S          0.00103   0.06848   0.16312   0.24399  -0.04132
  74        4PX         0.00007  -0.03989  -0.08712  -0.09598   0.00178
  75        4PY         0.00000  -0.01373  -0.02880  -0.00965   0.01711
  76        4PZ        -0.00002  -0.00043  -0.00077   0.00184   0.00184
  77        5PX        -0.00049  -0.00831  -0.01975  -0.02367  -0.00132
  78        5PY        -0.00021  -0.00297  -0.00543   0.00096   0.00557
  79        5PZ         0.00012  -0.00021   0.00013   0.00101   0.00045
  80        6D 0       -0.00011  -0.00224  -0.00496  -0.00501   0.00016
  81        6D+1       -0.00003   0.00010   0.00015  -0.00029  -0.00020
  82        6D-1        0.00003  -0.00001  -0.00006  -0.00007   0.00000
  83        6D+2       -0.00001   0.00345   0.00769   0.00874   0.00050
  84        6D-2       -0.00003   0.00265   0.00550   0.00216  -0.00205
  85 7   H  1S         -0.00066   0.13450  -0.08552   0.02020  -0.08806
  86        2S         -0.00014   0.00213  -0.00240   0.00078  -0.00965
  87        3PX        -0.00017   0.00526  -0.00306   0.00042  -0.00122
  88        3PY        -0.00006  -0.00335   0.00191  -0.00018   0.00395
  89        3PZ         0.00001  -0.02167   0.01361  -0.00301   0.01180
  90 8   H  1S          0.00052   0.13322  -0.08549   0.02103  -0.10237
  91        2S          0.00036   0.00351  -0.00185   0.00074  -0.00464
  92        3PX         0.00005   0.01796  -0.01102   0.00230  -0.00981
  93        3PY         0.00000   0.00625  -0.00402   0.00111  -0.00191
  94        3PZ         0.00006   0.01211  -0.00776   0.00179  -0.00906
  95 9   H  1S         -0.00043   0.12422  -0.05816  -0.00782  -0.05963
  96        2S         -0.00033   0.00741   0.00082  -0.00700  -0.00973
  97        3PX         0.00004  -0.01696   0.01255  -0.00453   0.00918
  98        3PY         0.00003   0.01378  -0.00694   0.00005  -0.00357
  99        3PZ        -0.00010   0.00235  -0.00174   0.00067  -0.00181
 100 10  H  1S         -0.00006   0.03116  -0.01683   0.00441   0.11648
 101        2S         -0.00059   0.00512  -0.00078  -0.00123   0.01634
 102        3PX         0.00019   0.00358  -0.00175   0.00040   0.01049
 103        3PY         0.00003  -0.00442   0.00241  -0.00062  -0.01096
 104        3PZ         0.00017  -0.00110   0.00062  -0.00013  -0.00333
 105 11  H  1S          0.00002   0.03309  -0.01646   0.00227   0.11582
 106        2S          0.00000   0.00444  -0.00334   0.00072   0.01480
 107        3PX         0.00038  -0.00061   0.00040  -0.00011  -0.00080
 108        3PY         0.00001   0.00043  -0.00007   0.00000   0.00271
 109        3PZ         0.00023   0.00611  -0.00280   0.00036   0.01483
 110 12  H  1S         -0.00104   0.01462   0.00675   0.00322   0.09940
 111        2S          0.00700   0.00131   0.00331   0.00167   0.01104
 112        3PX        -0.00024   0.00035   0.00071   0.00040   0.00011
 113        3PY        -0.00014  -0.00057  -0.00064   0.00009  -0.00198
 114        3PZ         0.00128  -0.00265  -0.00142  -0.00049  -0.01385
 115 13  H  1S         -0.00139   0.01151   0.00912   0.00800   0.09950
 116        2S          0.00607   0.00461   0.00371   0.00313   0.00787
 117        3PX         0.00048  -0.00103   0.00018   0.00024  -0.00609
 118        3PY         0.00095  -0.00238  -0.00168  -0.00118  -0.01142
 119        3PZ        -0.00072   0.00105   0.00057   0.00040   0.00595
                          11        12        13        14        15
                           O         O         O         O         O
     Eigenvalues --    -0.90332  -0.81433  -0.81050  -0.71086  -0.67587
   1 1   C  1S         -0.15757  -0.00445  -0.04396  -0.01165  -0.03353
   2        2S          0.31289   0.00952   0.08890   0.01659   0.06397
   3        3S          0.10916   0.01870   0.07199  -0.00999   0.01586
   4        4PX         0.08008   0.03026   0.06461  -0.11438  -0.08727
   5        4PY        -0.00842  -0.02990   0.03124   0.17203   0.12204
   6        4PZ         0.03227  -0.02713  -0.00380  -0.04758   0.18970
   7        5PX         0.01753   0.00277  -0.00117  -0.04248  -0.04561
   8        5PY        -0.02245  -0.00971   0.01886   0.07382   0.05486
   9        5PZ         0.01416  -0.00379  -0.01183  -0.01136   0.08627
  10        6D 0       -0.00037  -0.00031   0.00074   0.00309   0.00716
  11        6D+1       -0.00497   0.00097  -0.00173   0.00558  -0.00485
  12        6D-1       -0.00030   0.00148  -0.00118  -0.00506  -0.00301
  13        6D+2       -0.00511  -0.00272  -0.00321   0.00450   0.00279
  14        6D-2       -0.00593   0.00055  -0.00404   0.00701   0.00728
  15 2   C  1S          0.13287   0.01312   0.01446  -0.03054   0.02600
  16        2S         -0.27156  -0.02268  -0.03215   0.05962  -0.05511
  17        3S         -0.06286  -0.02522  -0.03099   0.12110  -0.05543
  18        4PX         0.13403   0.06919  -0.04276   0.07527  -0.07321
  19        4PY         0.02420  -0.10356   0.06442   0.25408  -0.02920
  20        4PZ         0.06581  -0.10056  -0.07666  -0.08717   0.25387
  21        5PX         0.04473   0.02322  -0.04157   0.02658  -0.02015
  22        5PY         0.00329  -0.03954   0.01139   0.06736   0.00557
  23        5PZ         0.03017  -0.05367  -0.04046  -0.02225   0.11477
  24        6D 0        0.00009  -0.00279  -0.00203   0.00542  -0.01271
  25        6D+1        0.00744   0.00659  -0.00046   0.00668   0.00239
  26        6D-1        0.00057   0.00387   0.01200   0.01660  -0.00558
  27        6D+2        0.00765  -0.00896   0.00872   0.01036  -0.00793
  28        6D-2       -0.00155   0.00132   0.00529  -0.01275   0.00924
  29 3   N  1S          0.02457   0.00995  -0.00658  -0.02083   0.01321
  30        2S          0.05336   0.02547  -0.01979  -0.04605   0.03341
  31        3S         -0.00633   0.02748  -0.02616  -0.10914   0.03606
  32        4PX         0.00840  -0.20584   0.40160   0.02671  -0.03330
  33        4PY         0.16392   0.20915   0.04823   0.31886  -0.11265
  34        4PZ        -0.14139   0.33312   0.21174  -0.11447   0.18842
  35        5PX        -0.00816   0.10872  -0.19573  -0.03240   0.01936
  36        5PY        -0.09817  -0.11322  -0.02168  -0.20407   0.08807
  37        5PZ         0.07194  -0.16177  -0.09803   0.07344  -0.10023
  38        6D 0        0.00333  -0.01161  -0.00041   0.00237  -0.01022
  39        6D+1        0.00010   0.00476   0.01206   0.00136   0.00543
  40        6D-1        0.00736  -0.00295   0.00242   0.00576   0.00051
  41        6D+2        0.00677   0.00374   0.00710   0.00523  -0.00412
  42        6D-2       -0.00348  -0.00283   0.00711  -0.00785   0.00305
  43 4   C  1S         -0.04433   0.00248  -0.03312   0.09939   0.09197
  44        2S          0.09569  -0.00725   0.07226  -0.22312  -0.20749
  45        3S          0.02016   0.00371   0.02391  -0.04414  -0.02770
  46        4PX        -0.09777  -0.01762  -0.03388   0.09557   0.07606
  47        4PY         0.10652   0.05735   0.00556  -0.04441  -0.04771
  48        4PZ         0.02635   0.00280  -0.00072  -0.02584   0.04085
  49        5PX        -0.02678  -0.01221  -0.01408   0.05348   0.04944
  50        5PY         0.02326   0.00969   0.01215  -0.01886  -0.01375
  51        5PZ         0.00644   0.00005   0.00235  -0.00829   0.01333
  52        6D 0       -0.00269   0.00002  -0.00212   0.00595   0.00637
  53        6D+1       -0.00279   0.00017  -0.00018   0.00136  -0.00187
  54        6D-1        0.00188  -0.00078   0.00209  -0.00314   0.00033
  55        6D+2       -0.00244   0.00519  -0.00728   0.00095  -0.00050
  56        6D-2       -0.01087  -0.00134  -0.00333   0.00131  -0.00101
  57 5   O  1S         -0.03522  -0.01489  -0.00125   0.05733   0.05615
  58        2S         -0.07097  -0.02982  -0.00392   0.11704   0.11469
  59        3S         -0.06220  -0.02038  -0.00797   0.13670   0.13531
  60        4PX        -0.03327  -0.06890   0.04943  -0.02677  -0.00488
  61        4PY         0.01790  -0.01397   0.03034  -0.13562  -0.13791
  62        4PZ         0.00995  -0.00331  -0.00472  -0.02130   0.01710
  63        5PX        -0.01076  -0.03475   0.02791  -0.02078  -0.00686
  64        5PY         0.00683  -0.00532   0.01379  -0.07138  -0.07722
  65        5PZ         0.00531  -0.00186  -0.00388  -0.01122   0.01208
  66        6D 0       -0.00006   0.00017  -0.00069   0.00272   0.00325
  67        6D+1       -0.00040  -0.00043   0.00067  -0.00067   0.00017
  68        6D-1        0.00088  -0.00046   0.00007  -0.00227   0.00086
  69        6D+2       -0.00190   0.00153  -0.00285   0.00765   0.00731
  70        6D-2       -0.00233  -0.00325   0.00221  -0.00121  -0.00083
  71 6   O  1S         -0.03904   0.00357  -0.02652   0.04869   0.04429
  72        2S         -0.08019   0.00584  -0.05388   0.10174   0.09419
  73        3S         -0.05936   0.01307  -0.04887   0.08420   0.07283
  74        4PX        -0.01761  -0.00131  -0.02009   0.07821   0.08897
  75        4PY         0.03387   0.01880   0.00455  -0.01042  -0.01086
  76        4PZ         0.00812   0.00048   0.00044  -0.01290   0.02466
  77        5PX        -0.01128  -0.00213  -0.01070   0.04424   0.05401
  78        5PY         0.01167   0.00821  -0.00010   0.00084  -0.00144
  79        5PZ         0.00277   0.00012  -0.00001  -0.00682   0.01504
  80        6D 0       -0.00040   0.00019  -0.00076   0.00165   0.00193
  81        6D+1       -0.00081   0.00001   0.00001   0.00106  -0.00221
  82        6D-1       -0.00014   0.00000   0.00003   0.00031  -0.00027
  83        6D+2        0.00201   0.00037   0.00140  -0.00448  -0.00499
  84        6D-2       -0.00281  -0.00154  -0.00004  -0.00001  -0.00003
  85 7   H  1S          0.11418  -0.29846  -0.09217   0.05925  -0.15500
  86        2S          0.01471  -0.04630  -0.01238   0.01542  -0.04717
  87        3PX         0.00398  -0.00230  -0.01667   0.00230  -0.00326
  88        3PY        -0.00489  -0.00383  -0.00022  -0.00947   0.00483
  89        3PZ        -0.01164   0.02858   0.00402  -0.00461   0.01183
  90 8   H  1S          0.01753   0.06779   0.34844   0.03935   0.04700
  91        2S          0.00857   0.01259   0.05926   0.01112   0.01077
  92        3PX         0.00145   0.01390   0.02345   0.00468   0.00493
  93        3PY        -0.00333  -0.00361   0.01505  -0.00707   0.00344
  94        3PZ         0.00513  -0.00711   0.01706   0.00565  -0.00407
  95 9   H  1S          0.07482   0.21824  -0.17527   0.12832  -0.00143
  96        2S         -0.00124   0.01306  -0.01575   0.05055   0.02896
  97        3PX        -0.00949  -0.01982   0.00936  -0.01245   0.00369
  98        3PY         0.00484   0.01593  -0.01782   0.00333  -0.00015
  99        3PZ         0.00428  -0.00634  -0.00818   0.00385  -0.00604
 100 10  H  1S         -0.14658  -0.10731   0.02756   0.13182   0.03129
 101        2S         -0.02770  -0.01731   0.00551   0.02474   0.00625
 102        3PX        -0.00790  -0.00485   0.00195   0.00757   0.00021
 103        3PY         0.01181   0.00625  -0.00074  -0.00528  -0.00178
 104        3PZ         0.00453   0.00064  -0.00097  -0.00358   0.00473
 105 11  H  1S         -0.14647   0.06365   0.03275   0.08087  -0.23585
 106        2S         -0.02562   0.00427   0.00089   0.01087  -0.04793
 107        3PX         0.00333   0.00078  -0.00030  -0.00058   0.00099
 108        3PY        -0.00244  -0.00132   0.00095   0.00464  -0.00153
 109        3PZ        -0.01497   0.00396   0.00189   0.00625  -0.01532
 110 12  H  1S          0.13870  -0.02238   0.03454   0.00172   0.20266
 111        2S          0.01991  -0.01065   0.00395  -0.00029   0.05122
 112        3PX         0.00246   0.00110   0.00213  -0.00138  -0.00222
 113        3PY        -0.00165   0.00032  -0.00013   0.00388  -0.00118
 114        3PZ        -0.01523   0.00167  -0.00399  -0.00137  -0.01426
 115 13  H  1S          0.12834   0.00109   0.06953   0.10489   0.03241
 116        2S          0.02637   0.00115   0.00354   0.02420   0.01626
 117        3PX        -0.00480   0.00070  -0.00189  -0.00648  -0.00249
 118        3PY        -0.01216  -0.00059  -0.00537  -0.00525  -0.00057
 119        3PZ         0.00717  -0.00064   0.00275   0.00256   0.00544
                          16        17        18        19        20
                           O         O         O         O         O
     Eigenvalues --    -0.61590  -0.59877  -0.57954  -0.56461  -0.53294
   1 1   C  1S          0.03080  -0.01287   0.00511   0.00267   0.00083
   2        2S         -0.06501   0.02615  -0.01166   0.00556  -0.00723
   3        3S         -0.05206  -0.00888   0.02798  -0.05710  -0.00767
   4        4PX         0.01992  -0.27287  -0.08657  -0.02078   0.17116
   5        4PY        -0.07634  -0.01321  -0.25075  -0.06260   0.17385
   6        4PZ         0.12502  -0.03665   0.10201  -0.24564   0.01195
   7        5PX        -0.01227  -0.12413  -0.02732   0.02315   0.02818
   8        5PY        -0.02864  -0.01382  -0.16057  -0.02040   0.08636
   9        5PZ         0.05745  -0.00459   0.06356  -0.11425   0.00225
  10        6D 0       -0.00004   0.00012   0.00145  -0.01823   0.00334
  11        6D+1       -0.00287   0.00925   0.00561  -0.00193  -0.00763
  12        6D-1        0.00054   0.00358   0.00868   0.00011  -0.00610
  13        6D+2        0.00307   0.00920   0.00545   0.00379  -0.01727
  14        6D-2       -0.01160   0.01130  -0.00731  -0.00199   0.00060
  15 2   C  1S         -0.01103  -0.02056  -0.01878  -0.00360   0.03216
  16        2S          0.02038   0.05452   0.03606   0.00863  -0.08034
  17        3S          0.03146   0.05503   0.07887   0.05342  -0.09628
  18        4PX        -0.17912   0.27548   0.07721   0.00961  -0.19523
  19        4PY         0.22149  -0.01661   0.05060   0.11350  -0.01962
  20        4PZ         0.08512   0.09816  -0.01740   0.26365  -0.08392
  21        5PX        -0.10609   0.13820   0.03009   0.03787  -0.10166
  22        5PY         0.08816  -0.02169  -0.01322   0.04135  -0.00514
  23        5PZ         0.05038   0.05199   0.00223   0.13850  -0.07345
  24        6D 0       -0.00604  -0.00015   0.00610  -0.02199  -0.00108
  25        6D+1       -0.00003   0.01271   0.00733  -0.00270  -0.00973
  26        6D-1        0.00716   0.00092   0.00499  -0.00389  -0.00146
  27        6D+2       -0.00129   0.00805   0.00941   0.00567  -0.00993
  28        6D-2       -0.02167   0.00689  -0.00979  -0.00464   0.00119
  29 3   N  1S         -0.00610   0.00544  -0.02988   0.00190   0.01728
  30        2S         -0.01559   0.01050  -0.06541   0.00604   0.03341
  31        3S         -0.01570   0.01703  -0.12436  -0.00506   0.09986
  32        4PX        -0.08812   0.02711   0.12480   0.01336  -0.09281
  33        4PY         0.20224   0.06232   0.06208  -0.00174  -0.02653
  34        4PZ         0.02522   0.03203  -0.03403   0.06461   0.00048
  35        5PX         0.05065  -0.00594  -0.08026  -0.02306   0.07140
  36        5PY        -0.14373  -0.06259  -0.05582   0.00621   0.01997
  37        5PZ        -0.00187  -0.01016   0.03336  -0.02606  -0.00740
  38        6D 0       -0.00647  -0.00172   0.00110  -0.00885   0.00165
  39        6D+1        0.00451   0.00184   0.00201   0.00462  -0.00202
  40        6D-1        0.00295   0.00370   0.00288   0.00481  -0.00364
  41        6D+2       -0.00273   0.00514   0.00492  -0.00131  -0.00436
  42        6D-2       -0.00825   0.00767   0.00195   0.00094  -0.00579
  43 4   C  1S         -0.09460  -0.01189   0.04202  -0.00567   0.01420
  44        2S          0.21539   0.03549  -0.10633   0.00741  -0.04073
  45        3S          0.06350  -0.02516  -0.02890   0.01716   0.03663
  46        4PX         0.01638   0.03213  -0.22725  -0.11498  -0.22406
  47        4PY        -0.04637  -0.27094   0.04009   0.08888  -0.19971
  48        4PZ         0.06639  -0.06487   0.09998  -0.15250  -0.03296
  49        5PX        -0.04790   0.04167   0.00094  -0.03358  -0.02989
  50        5PY         0.01958  -0.04468   0.01043   0.03852   0.00735
  51        5PZ         0.03583  -0.01840   0.03956  -0.07623  -0.00489
  52        6D 0       -0.00559  -0.00197   0.00371  -0.00130  -0.00069
  53        6D+1       -0.00117   0.00055   0.00012  -0.00050   0.00027
  54        6D-1        0.00099   0.00060  -0.00085  -0.00011   0.00227
  55        6D+2        0.00244   0.00054   0.00609   0.00264  -0.02183
  56        6D-2        0.00593  -0.00026  -0.00044   0.00372   0.00427
  57 5   O  1S         -0.06361  -0.05988   0.00096  -0.00203  -0.04521
  58        2S         -0.12787  -0.11762  -0.00551  -0.00942  -0.09253
  59        3S         -0.16300  -0.16729   0.02926   0.01341  -0.12661
  60        4PX         0.05527   0.19904  -0.17963  -0.11790   0.05187
  61        4PY         0.16200   0.20794   0.03108   0.04907   0.28286
  62        4PZ         0.08249  -0.00741   0.08191  -0.13142   0.02211
  63        5PX         0.04534   0.12689  -0.12998  -0.08136   0.02966
  64        5PY         0.09504   0.12015   0.03242   0.04242   0.18516
  65        5PZ         0.05222  -0.00680   0.05799  -0.08801   0.01423
  66        6D 0       -0.00311  -0.00524   0.00010  -0.00283  -0.00604
  67        6D+1        0.00125   0.00149  -0.00047  -0.00266   0.00030
  68        6D-1        0.00577   0.00032   0.00569  -0.00817   0.00221
  69        6D+2       -0.00626  -0.00842  -0.00332  -0.00369  -0.01241
  70        6D-2        0.00477   0.01038  -0.00930  -0.00540   0.00243
  71 6   O  1S         -0.05510   0.01241   0.08202   0.01956   0.06065
  72        2S         -0.11442   0.02870   0.16742   0.03731   0.12422
  73        3S         -0.11760   0.01711   0.20860   0.06451   0.17519
  74        4PX        -0.14444   0.07213   0.25520   0.05074   0.31440
  75        4PY        -0.06845  -0.18155   0.12703   0.11262   0.04277
  76        4PZ         0.04407  -0.04429   0.07448  -0.12079  -0.01802
  77        5PX        -0.08374   0.04848   0.14966   0.02553   0.19292
  78        5PY        -0.04997  -0.11301   0.08114   0.06987   0.01879
  79        5PZ         0.02534  -0.02786   0.04803  -0.07634  -0.01290
  80        6D 0       -0.00355   0.00110   0.00744   0.00195   0.00738
  81        6D+1       -0.00352   0.00316  -0.00546   0.00907   0.00142
  82        6D-1       -0.00087   0.00051  -0.00110   0.00191   0.00044
  83        6D+2        0.00572  -0.00616  -0.00976  -0.00063  -0.01441
  84        6D-2        0.00575   0.01010  -0.00914  -0.00677  -0.00308
  85 7   H  1S         -0.07354  -0.02520   0.02678  -0.07281  -0.00119
  86        2S         -0.02075  -0.00951   0.01267  -0.04823   0.00614
  87        3PX         0.00323  -0.00255  -0.00414  -0.00228   0.00389
  88        3PY        -0.00491  -0.00089  -0.00162   0.00125   0.00065
  89        3PZ         0.00620   0.00134  -0.00251   0.00430   0.00082
  90 8   H  1S          0.00081   0.07067   0.07535   0.04821  -0.07501
  91        2S          0.00080   0.03704   0.03001   0.02282  -0.03391
  92        3PX         0.00457   0.00472   0.00205   0.00357  -0.00231
  93        3PY        -0.00703   0.00058   0.00193   0.00015  -0.00147
  94        3PZ        -0.00213   0.00273   0.00579  -0.00011  -0.00439
  95 9   H  1S          0.13310  -0.03432  -0.03095   0.02238   0.03439
  96        2S          0.00130  -0.08047   0.01256   0.02034  -0.04133
  97        3PX        -0.01709  -0.00769   0.00695   0.00032  -0.00626
  98        3PY         0.00686   0.00033  -0.00487   0.00110   0.00523
  99        3PZ         0.00208  -0.00087   0.00002  -0.00433   0.00218
 100 10  H  1S          0.28773  -0.13474   0.01172   0.13718   0.05435
 101        2S          0.09094  -0.05300   0.00732   0.06865   0.03191
 102        3PX         0.00955  -0.00106   0.00237   0.00503  -0.00125
 103        3PY        -0.01294   0.00813   0.00082  -0.00547  -0.00407
 104        3PZ        -0.00169   0.00366  -0.00123   0.00471  -0.00171
 105 11  H  1S         -0.09207  -0.04928   0.04091  -0.26289   0.02963
 106        2S         -0.02757  -0.01992   0.00416  -0.10450   0.00758
 107        3PX        -0.00291   0.00536   0.00061   0.00218  -0.00397
 108        3PY         0.00448  -0.00094   0.00215   0.00173  -0.00023
 109        3PZ        -0.00489  -0.00301   0.00207  -0.01430   0.00114
 110 12  H  1S          0.06033  -0.00509   0.05349  -0.24217   0.02753
 111        2S          0.01650  -0.00444   0.00985  -0.09512   0.01443
 112        3PX         0.00077  -0.00494  -0.00226  -0.00028   0.00448
 113        3PY        -0.00362   0.00056  -0.00561   0.00318   0.00437
 114        3PZ        -0.00204  -0.00008  -0.00108   0.01340  -0.00263
 115 13  H  1S         -0.12370  -0.06478  -0.25279   0.03250   0.19486
 116        2S         -0.03727  -0.01430  -0.05789   0.01631   0.08751
 117        3PX         0.00503  -0.00317   0.00696  -0.00123  -0.00372
 118        3PY         0.00697   0.00460   0.01223  -0.00323  -0.00834
 119        3PZ        -0.00161  -0.00222  -0.00486  -0.00541   0.00674
                          21        22        23        24        25
                           O         O         O         O         V
     Eigenvalues --    -0.49419  -0.37611  -0.35341  -0.34997   0.09749
   1 1   C  1S         -0.00186  -0.02547   0.04648  -0.00749  -0.01400
   2        2S          0.00423   0.06509  -0.09932   0.03435   0.00607
   3        3S          0.05424   0.11976  -0.40646  -0.16407   0.21865
   4        4PX         0.00011   0.08395  -0.17130   0.03441   0.00142
   5        4PY         0.04642  -0.16076   0.15029  -0.01661   0.01472
   6        4PZ        -0.22291  -0.03018   0.05102  -0.02532   0.04368
   7        5PX         0.00457   0.09055  -0.07205   0.10888   0.08708
   8        5PY         0.01471  -0.13153   0.16077   0.06967   0.02247
   9        5PZ        -0.13137  -0.02596   0.08710   0.00664   0.17111
  10        6D 0       -0.01567  -0.00319   0.00304  -0.00166   0.00355
  11        6D+1        0.00703   0.00004   0.00370   0.00155   0.00464
  12        6D-1       -0.01025   0.00279  -0.00058  -0.00065   0.00151
  13        6D+2       -0.00078   0.00297   0.00617  -0.00204   0.00220
  14        6D-2        0.00362  -0.00769   0.00843  -0.00223  -0.00638
  15 2   C  1S         -0.00978  -0.00946  -0.01462   0.00410  -0.02673
  16        2S          0.03528   0.03009   0.02299  -0.03242   0.00198
  17        3S         -0.05012   0.03130   0.21575   0.21346   0.89029
  18        4PX         0.06513  -0.00943   0.08585  -0.01348  -0.02207
  19        4PY         0.00655   0.01382  -0.00374   0.01056   0.09266
  20        4PZ         0.08050   0.01425   0.01409   0.01470  -0.05388
  21        5PX         0.02501  -0.02845   0.12575   0.09752  -0.07579
  22        5PY         0.04144   0.03250  -0.02016  -0.04568   0.22656
  23        5PZ         0.01369   0.02204   0.04388   0.04486  -0.14096
  24        6D 0       -0.00974  -0.00192   0.00383  -0.00294  -0.00190
  25        6D+1       -0.00255   0.00063   0.00460  -0.00093  -0.00166
  26        6D-1       -0.00357  -0.00182   0.00207  -0.00103  -0.00185
  27        6D+2        0.00239   0.00063  -0.00193   0.00082  -0.00081
  28        6D-2        0.00540  -0.00564   0.00745  -0.00114   0.00284
  29 3   N  1S          0.00720   0.02037   0.00374   0.00254   0.09713
  30        2S          0.01257   0.04960   0.00841   0.01018   0.14235
  31        3S          0.06628   0.06934  -0.00371  -0.03972   1.30883
  32        4PX         0.00357  -0.08576  -0.00308  -0.00858   0.13701
  33        4PY        -0.03718   0.08122   0.00514   0.00424   0.03375
  34        4PZ         0.02554   0.00746   0.00308  -0.00682  -0.05174
  35        5PX         0.00742   0.05470   0.00569  -0.02353  -0.35297
  36        5PY         0.04908  -0.08852  -0.02361  -0.02528  -0.13446
  37        5PZ        -0.01229  -0.00252   0.00109   0.00761   0.14719
  38        6D 0       -0.00269  -0.00016   0.00070   0.00024   0.00111
  39        6D+1        0.00083   0.00084  -0.00061  -0.00043   0.00080
  40        6D-1        0.00077  -0.00055   0.00077   0.00063  -0.00024
  41        6D+2       -0.00014  -0.00314   0.00116  -0.00035   0.00189
  42        6D-2        0.00214   0.00157   0.00208  -0.00077  -0.00020
  43 4   C  1S         -0.00078   0.00005   0.00287  -0.00140  -0.00295
  44        2S          0.00030   0.01132  -0.01858   0.00868   0.01063
  45        3S         -0.02497   0.01983   0.01918   0.05526  -0.07805
  46        4PX        -0.00204  -0.11777   0.06126  -0.01133  -0.00946
  47        4PY        -0.03532   0.05057  -0.10028   0.00984   0.01482
  48        4PZ         0.26083   0.01112  -0.00142   0.06602   0.01622
  49        5PX         0.00766   0.07126  -0.01654  -0.03602  -0.01413
  50        5PY        -0.03112   0.00530   0.13081  -0.02280  -0.01518
  51        5PZ         0.16857  -0.00309   0.02361   0.04822  -0.01080
  52        6D 0       -0.00578   0.00177  -0.00130   0.00514   0.00035
  53        6D+1        0.01199  -0.00241   0.01562   0.04532  -0.00154
  54        6D-1       -0.01849   0.00629   0.00755   0.03593   0.00145
  55        6D+2       -0.00448  -0.03865  -0.02164   0.01039   0.00083
  56        6D-2       -0.00114  -0.02895   0.05639  -0.01375   0.00139
  57 5   O  1S         -0.00040   0.01546   0.00916  -0.00051   0.01250
  58        2S         -0.00205   0.04533   0.00996   0.00179   0.02456
  59        3S          0.00173   0.00008   0.10554  -0.02782   0.05378
  60        4PX         0.01509   0.49757   0.03233  -0.02617  -0.04805
  61        4PY        -0.03139  -0.21364   0.18983   0.02475   0.00625
  62        4PZ         0.33461  -0.05056  -0.04274  -0.40526  -0.00605
  63        5PX         0.00940   0.40228   0.03289  -0.02439  -0.05142
  64        5PY        -0.02017  -0.18893   0.16801   0.01768   0.01239
  65        5PZ         0.24345  -0.04343  -0.03735  -0.36831  -0.00186
  66        6D 0        0.00379   0.00492  -0.00232  -0.00326  -0.00031
  67        6D+1        0.00364   0.00239   0.00071  -0.00009  -0.00012
  68        6D-1        0.01839  -0.00253  -0.00124  -0.01452   0.00065
  69        6D+2        0.00194   0.00543  -0.00468  -0.00126  -0.00169
  70        6D-2        0.00023   0.01309   0.00344  -0.00141  -0.00129
  71 6   O  1S          0.00050  -0.00054  -0.00231   0.00017   0.00227
  72        2S         -0.00080   0.00485  -0.00821   0.00050   0.00237
  73        3S          0.01176  -0.04349   0.00230   0.00716   0.03443
  74        4PX         0.01517   0.13643  -0.19410   0.04558   0.00027
  75        4PY        -0.01984   0.19565   0.49769  -0.13885  -0.01041
  76        4PZ         0.25434   0.01967   0.13956   0.42379  -0.02037
  77        5PX         0.00560   0.11021  -0.15371   0.03801  -0.00615
  78        5PY        -0.01111   0.15283   0.38050  -0.11402  -0.01428
  79        5PZ         0.16862   0.01574   0.11305   0.35525  -0.01793
  80        6D 0        0.00002   0.00241  -0.00186   0.00078  -0.00016
  81        6D+1       -0.01699  -0.00109  -0.00558  -0.01988  -0.00005
  82        6D-1       -0.00426   0.00021  -0.00080  -0.00347   0.00027
  83        6D+2       -0.00115  -0.00256   0.00904  -0.00280   0.00066
  84        6D-2        0.00131  -0.01016  -0.01307   0.00450   0.00005
  85 7   H  1S         -0.02532  -0.01917   0.00206   0.00979  -0.05438
  86        2S         -0.01601  -0.02163   0.00018  -0.01850  -0.92579
  87        3PX        -0.00135   0.00468  -0.00054   0.00106   0.00017
  88        3PY         0.00072  -0.00259   0.00030   0.00038   0.00087
  89        3PZ         0.00088   0.00213   0.00000   0.00039   0.00515
  90 8   H  1S          0.01540  -0.02281   0.00858  -0.01361  -0.05723
  91        2S          0.00815  -0.01452   0.01080  -0.00067  -1.04072
  92        3PX         0.00079   0.00267   0.00084   0.00002  -0.00543
  93        3PY         0.00096  -0.00467   0.00062  -0.00047  -0.00064
  94        3PZ        -0.00006  -0.00295   0.00024  -0.00098  -0.00475
  95 9   H  1S         -0.00899  -0.00037  -0.01409   0.00679  -0.02699
  96        2S          0.00531  -0.07227  -0.04952  -0.01855  -0.08241
  97        3PX         0.00208  -0.01965  -0.00084  -0.00225   0.00471
  98        3PY         0.00002   0.00387   0.00070   0.00071   0.00217
  99        3PZ         0.00207   0.00313  -0.00088  -0.00520  -0.00064
 100 10  H  1S         -0.01011   0.04285  -0.05891   0.02272  -0.00249
 101        2S         -0.00453   0.00746  -0.05625   0.03354  -0.57150
 102        3PX         0.00042   0.00108   0.00005  -0.00030   0.00089
 103        3PY         0.00029  -0.00165   0.00290  -0.00173   0.00447
 104        3PZ         0.00376  -0.00060  -0.00019  -0.00169  -0.00223
 105 11  H  1S         -0.07919  -0.01275   0.01616  -0.03217   0.00334
 106        2S         -0.05791  -0.01645   0.00970  -0.01218  -0.36638
 107        3PX         0.00209  -0.00047   0.00045  -0.00202   0.00212
 108        3PY        -0.00098   0.00079   0.00017   0.00149   0.00420
 109        3PZ        -0.00393  -0.00049   0.00102  -0.00076   0.00035
 110 12  H  1S         -0.22302  -0.03648   0.03701  -0.02365   0.02466
 111        2S         -0.10088  -0.03166   0.05465  -0.00326  -0.24229
 112        3PX         0.00198   0.00169  -0.00515   0.00055   0.00371
 113        3PY         0.00428  -0.00331   0.00272  -0.00222   0.00339
 114        3PZ         0.00993   0.00224  -0.00163   0.00111   0.00033
 115 13  H  1S          0.13022  -0.07477  -0.00029   0.01181  -0.03533
 116        2S          0.04760  -0.03923   0.06066  -0.04145  -0.12922
 117        3PX        -0.00481   0.00447  -0.00156  -0.00274  -0.00274
 118        3PY        -0.00592   0.00012   0.00132   0.00124  -0.00037
 119        3PZ        -0.00162  -0.00285   0.00058  -0.00191  -0.00037
                          26        27        28        29        30
                           V         V         V         V         V
     Eigenvalues --     0.15219   0.17242   0.21440   0.22880   0.24079
   1 1   C  1S         -0.01909  -0.03758  -0.03490  -0.08365   0.02637
   2        2S         -0.01446   0.04381   0.01943   0.04053  -0.01830
   3        3S          0.90560   0.84171   1.09356   2.75605  -0.76517
   4        4PX        -0.00673   0.03068   0.00662  -0.03765  -0.03475
[...]
 116        2S          0.04755
 117        3PX         0.00000   0.00053
 118        3PY         0.00000   0.00000   0.00137
 119        3PZ         0.00000   0.00000   0.00000   0.00051
     Gross orbital populations:
                           1
   1 1   C  1S          1.98888
   2        2S          0.87219
   3        3S          0.27266
   4        4PX         0.67569
   5        4PY         0.72215
   6        4PZ         0.67908
   7        5PX         0.21788
   8        5PY         0.37463
   9        5PZ         0.33820
  10        6D 0        0.01112
  11        6D+1        0.00589
  12        6D-1        0.00444
  13        6D+2        0.00969
  14        6D-2        0.00971
  15 2   C  1S          1.98912
  16        2S          0.88392
  17        3S          0.18646
  18        4PX         0.72739
  19        4PY         0.58304
  20        4PZ         0.70474
  21        5PX         0.29096
  22        5PY         0.17658
  23        5PZ         0.32534
  24        6D 0        0.01462
  25        6D+1        0.00714
  26        6D-1        0.00864
  27        6D+2        0.01110
  28        6D-2        0.01690
  29 3   N  1S          1.98926
  30        2S          0.97917
  31        3S          0.34734
  32        4PX         0.82816
  33        4PY         0.83768
  34        4PZ         0.78438
  35        5PX         0.40674
  36        5PY         0.49291
  37        5PZ         0.39930
  38        6D 0        0.00655
  39        6D+1        0.00413
  40        6D-1        0.00278
  41        6D+2        0.00377
  42        6D-2        0.00587
  43 4   C  1S          1.98998
  44        2S          0.89548
  45        3S          0.09730
  46        4PX         0.73440
  47        4PY         0.69671
  48        4PZ         0.44121
  49        5PX         0.10296
  50        5PY         0.13348
  51        5PZ         0.27284
  52        6D 0        0.00911
  53        6D+1        0.02987
  54        6D-1        0.02275
  55        6D+2        0.04896
  56        6D-2        0.06629
  57 5   O  1S          1.99061
  58        2S          1.04431
  59        3S          0.75501
  60        4PX         1.01923
  61        4PY         0.89861
  62        4PZ         0.92223
  63        5PX         0.71764
  64        5PY         0.52657
  65        5PZ         0.75049
  66        6D 0        0.00196
  67        6D+1        0.00036
  68        6D-1        0.00429
  69        6D+2        0.00524
  70        6D-2        0.00401
  71 6   O  1S          1.99073
  72        2S          1.06157
  73        3S          0.71840
  74        4PX         0.89100
  75        4PY         1.07392
  76        4PZ         0.85791
  77        5PX         0.48058
  78        5PY         0.72473
  79        5PZ         0.68342
  80        6D 0        0.00220
  81        6D+1        0.00569
  82        6D-1        0.00032
  83        6D+2        0.00646
  84        6D-2        0.00452
  85 7   H  1S          0.70743
  86        2S          0.06048
  87        3PX         0.00985
  88        3PY         0.00698
  89        3PZ         0.03112
  90 8   H  1S          0.70965
  91        2S          0.05823
  92        3PX         0.02369
  93        3PY         0.00994
  94        3PZ         0.01424
  95 9   H  1S          0.60456
  96        2S          0.09196
  97        3PX         0.03880
  98        3PY         0.01752
  99        3PZ         0.00686
 100 10  H  1S          0.76546
 101        2S          0.14888
 102        3PX         0.00868
 103        3PY         0.01163
 104        3PZ         0.00386
 105 11  H  1S          0.75832
 106        2S          0.13387
 107        3PX         0.00295
 108        3PY         0.00240
 109        3PZ         0.01903
 110 12  H  1S          0.75396
 111        2S          0.16856
 112        3PX         0.00342
 113        3PY         0.00436
 114        3PZ         0.01753
 115 13  H  1S          0.74803
 116        2S          0.15299
 117        3PX         0.00559
 118        3PY         0.01351
 119        3PZ         0.00608
          Condensed to atoms (all electrons):
               1          2          3          4          5          6
     1  C    5.462194   0.109938  -0.033635   0.240926  -0.168908  -0.131363
     2  C    0.109938   4.900922   0.192671  -0.029357   0.033818   0.005643
     3  N   -0.033635   0.192671   5.964469   0.001340  -0.054402  -0.000140
     4  C    0.240926  -0.029357   0.001340   4.166623   0.499729   0.678466
     5  O   -0.168908   0.033818  -0.054402   0.499729   8.310173  -0.085061
     6  O   -0.131363   0.005643  -0.000140   0.678466  -0.085061   8.017658
     7  H   -0.000084  -0.020411   0.370455  -0.000646   0.001975   0.000006
     8  H    0.004603  -0.010898   0.367736  -0.000327   0.001199   0.000007
     9  H   -0.000308  -0.026910   0.327079  -0.006770   0.093712   0.001225
    10  H   -0.021166   0.416718  -0.026106   0.003771   0.000009  -0.000171
    11  H   -0.020863   0.408230  -0.022192  -0.002659   0.000832   0.000299
    12  H    0.366736  -0.024879  -0.003736  -0.008825   0.002623   0.003063
    13  H    0.374147  -0.029546   0.004512  -0.000924   0.004887   0.011807
               7          8          9         10         11         12
     1  C   -0.000084   0.004603  -0.000308  -0.021166  -0.020863   0.366736
     2  C   -0.020411  -0.010898  -0.026910   0.416718   0.408230  -0.024879
     3  N    0.370455   0.367736   0.327079  -0.026106  -0.022192  -0.003736
     4  C   -0.000646  -0.000327  -0.006770   0.003771  -0.002659  -0.008825
     5  O    0.001975   0.001199   0.093712   0.000009   0.000832   0.002623
     6  O    0.000006   0.000007   0.001225  -0.000171   0.000299   0.003063
     7  H    0.482430  -0.015499  -0.004919  -0.006868   0.005628   0.003731
     8  H   -0.015499   0.483235  -0.005002  -0.002263  -0.006694  -0.000196
     9  H   -0.004919  -0.005002   0.380524   0.004546  -0.002770  -0.000811
    10  H   -0.006868  -0.002263   0.004546   0.606389  -0.025208  -0.007304
    11  H    0.005628  -0.006694  -0.002770  -0.025208   0.579188   0.006068
    12  H    0.003731  -0.000196  -0.000811  -0.007304   0.006068   0.618005
    13  H    0.000054  -0.000145   0.000100  -0.003832  -0.003282  -0.006650
              13
     1  C    0.374147
     2  C   -0.029546
     3  N    0.004512
     4  C   -0.000924
     5  O    0.004887
     6  O    0.011807
     7  H    0.000054
     8  H   -0.000145
     9  H    0.000100
    10  H   -0.003832
    11  H   -0.003282
    12  H   -0.006650
    13  H    0.575078
 Mulliken charges:
               1
     1  C   -0.182216
     2  C    0.074062
     3  N   -0.088051
     4  C    0.458653
     5  O   -0.640585
     6  O   -0.501439
     7  H    0.184149
     8  H    0.184245
     9  H    0.240305
    10  H    0.061484
    11  H    0.083424
    12  H    0.052175
    13  H    0.073794
 Sum of Mulliken charges =   0.00000
 Mulliken charges with hydrogens summed into heavy atoms:
               1
     1  C   -0.056247
     2  C    0.218970
     3  N    0.520648
     4  C    0.458653
     5  O   -0.640585
     6  O   -0.501439
 Electronic spatial extent (au):  <R**2>=            602.0650
 Charge=              0.0000 electrons
 Dipole moment (field-independent basis, Debye):
    X=            -12.5475    Y=              1.6359    Z=              0.9678  Tot=             12.6907
 Quadrupole moment (field-independent basis, Debye-Ang):
   XX=            -36.1730   YY=            -38.2993   ZZ=            -32.8419
   XY=              4.8999   XZ=             -0.9469   YZ=             -1.3729
 Traceless Quadrupole moment (field-independent basis, Debye-Ang):
   XX=             -0.4016   YY=             -2.5279   ZZ=              2.9295
   XY=              4.8999   XZ=             -0.9469   YZ=             -1.3729
 Octapole moment (field-independent basis, Debye-Ang**2):
  XXX=            -71.0538  YYY=              2.0721  ZZZ=              2.4683  XYY=            -10.3308
  XXY=            -12.8987  XXZ=              2.7837  XZZ=             -5.8868  YZZ=             -1.8539
  YYZ=              0.2899  XYZ=             -0.1393
 Hexadecapole moment (field-independent basis, Debye-Ang**3):
 XXXX=           -475.0986 YYYY=           -191.2880 ZZZZ=            -51.5903 XXXY=             21.3151
 XXXZ=             -6.0414 YYYX=             14.5825 YYYZ=             -3.5357 ZZZX=             -5.9388
 ZZZY=             -1.7870 XXYY=           -103.3320 XXZZ=            -78.8739 YYZZ=            -40.9922
 XXYZ=             -0.0853 YYXZ=              0.2274 ZZXY=              4.1153
 N-N= 2.497146369702D+02 E-N=-1.255566252633D+03  KE= 3.205115860650D+02
 Orbital energies and kinetic energies (alpha):
                                 1                 2
   1         O               -20.448818         28.831811
   2         O               -20.427659         28.833130
   3         O               -15.718045         21.827913
   4         O               -11.325913         15.814311
   5         O               -11.293638         15.821276
   6         O               -11.234949         15.809163
   7         O                -1.347010          2.099800
   8         O                -1.320206          2.593204
   9         O                -1.218011          2.995081
  10         O                -1.054138          1.577030
  11         O                -0.903320          1.506644
  12         O                -0.814329          1.292898
  13         O                -0.810501          1.385920
  14         O                -0.710860          1.615201
  15         O                -0.675873          1.425987
  16         O                -0.615896          1.654167
  17         O                -0.598773          1.680952
  18         O                -0.579540          1.748124
  19         O                -0.564609          1.266134
  20         O                -0.532943          2.036955
  21         O                -0.494189          1.592803
  22         O                -0.376113          2.336071
  23         O                -0.353411          2.292888
  24         O                -0.349970          2.218328
  25         V                 0.097494          0.689207
  26         V                 0.152192          0.644170
  27         V                 0.172424          0.668992
  28         V                 0.214398          0.644477
  29         V                 0.228803          0.677277
  30         V                 0.240791          0.936765
  31         V                 0.288279          1.144742
  32         V                 0.307758          1.437205
  33         V                 0.328274          1.496610
  34         V                 0.366589          1.258891
  35         V                 0.428648          1.393414
  36         V                 0.485449          1.163996
  37         V                 0.549405          1.433101
  38         V                 0.551499          1.511322
  39         V                 0.569628          1.840307
  40         V                 0.643241          1.648077
  41         V                 0.667043          1.625517
  42         V                 0.753005          2.382670
  43         V                 0.775584          2.667895
  44         V                 0.791646          2.130125
  45         V                 0.826075          2.574466
  46         V                 0.834253          2.723885
  47         V                 0.842929          2.463317
  48         V                 0.863055          2.446491
  49         V                 0.870673          2.496379
  50         V                 0.898557          2.566114
  51         V                 0.904704          2.854237
  52         V                 0.920348          2.462683
  53         V                 0.929426          2.451577
  54         V                 0.963581          2.605336
  55         V                 1.013880          3.037700
  56         V                 1.029244          2.650199
  57         V                 1.044320          2.697139
  58         V                 1.100512          2.313116
  59         V                 1.226774          2.556835
  60         V                 1.266343          2.644305
  61         V                 1.306030          3.029352
  62         V                 1.327576          2.520203
  63         V                 1.369606          2.875976
  64         V                 1.439635          3.073053
  65         V                 1.459211          3.114052
  66         V                 1.489691          3.272339
  67         V                 1.508125          2.788094
  68         V                 1.543348          2.694700
  69         V                 1.566493          2.835497
  70         V                 1.715431          2.922766
  71         V                 1.739920          3.661025
  72         V                 1.785282          2.903109
  73         V                 1.803756          2.935505
  74         V                 1.848754          2.699572
  75         V                 1.916506          2.784015
  76         V                 1.943548          2.998167
  77         V                 1.973054          3.431242
  78         V                 2.012642          3.073210
  79         V                 2.019834          2.999072
  80         V                 2.064169          2.931319
  81         V                 2.080319          3.423828
  82         V                 2.120972          2.985494
  83         V                 2.143693          2.925948
  84         V                 2.161518          3.032255
  85         V                 2.179058          3.114036
  86         V                 2.209031          3.095250
  87         V                 2.247974          3.105303
  88         V                 2.297288          3.344537
  89         V                 2.317531          3.542375
  90         V                 2.362573          3.794966
  91         V                 2.418515          3.670450
  92         V                 2.509532          3.832355
  93         V                 2.563393          4.384452
  94         V                 2.571710          3.869304
  95         V                 2.632307          3.904653
  96         V                 2.672776          3.933231
  97         V                 2.742052          4.319890
  98         V                 2.794585          3.815872
  99         V                 2.806229          3.902795
 100         V                 2.951995          4.371095
 101         V                 3.013316          4.332755
 102         V                 3.076663          4.325947
 103         V                 3.097473          4.298303
 104         V                 3.123660          4.318800
 105         V                 3.129563          4.557770
 106         V                 3.168481          4.369397
 107         V                 3.245623          4.594495
 108         V                 3.256759          4.640460
 109         V                 3.308912          4.707568
 110         V                 3.375636          4.776158
 111         V                 3.421025          5.004244
 112         V                 3.485408          4.717880
 113         V                 3.628833          5.338009
 114         V                 3.649556          5.281637
 115         V                 3.656758          5.259758
 116         V                 3.746931          4.932639
 117         V                 3.880819          5.467181
 118         V                 4.123324          5.893229
 119         V                 4.210380          6.017958
 Total kinetic energy from orbitals= 3.205115860650D+02
 No NMR shielding tensors so no spin-rotation constants.
 Leave Link  601 at Wed Apr 29 13:39:54 2026, MaxMem=    33554432 cpu:         0.0
 (Enter /opt/g09/g09/l602.exe)
 FitSet:  NAtFit=    13 NAtPot=    13 NAtFrz=     0 MDM=    17 TotChg=   0.00000
 Merz-Kollman atomic radii used.

 **********************************************************************

            Electrostatic Properties Using The SCF Density

 **********************************************************************

       Atomic Center    1 is at   0.048950  1.006842  0.219808
       Atomic Center    2 is at  -1.328405  0.721009 -0.358625
       Atomic Center    3 is at  -1.865731 -0.548234  0.195918
       Atomic Center    4 is at   1.081526 -0.114725 -0.000013
       Atomic Center    5 is at   0.621000 -1.267654 -0.131098
       Atomic Center    6 is at   2.258501  0.205837  0.003848
       Atomic Center    7 is at  -2.123061 -0.464300  1.169681
       Atomic Center    8 is at  -2.675401 -0.881464 -0.307112
       Atomic Center    9 is at  -1.079255 -1.218625  0.115954
       Atomic Center   10 is at  -2.035268  1.517662 -0.143704
       Atomic Center   11 is at  -1.278024  0.587983 -1.436286
       Atomic Center   12 is at  -0.024097  1.182048  1.297507
       Atomic Center   13 is at   0.426783  1.930118 -0.216489
     677 points will be used for fitting atomic charges
 Fitting point charges to electrostatic potential
 Charges from ESP fit, RMS=   0.00141 RRMS=   0.02590:
 ESP charges:
               1
     1  C   -0.248545
     2  C    0.191134
     3  N   -0.459784
     4  C    0.886688
     5  O   -0.819760
     6  O   -0.740715
     7  H    0.328898
     8  H    0.319066
     9  H    0.339764
    10  H    0.010679
    11  H    0.056812
    12  H    0.066008
    13  H    0.069754
 Sum of ESP charges =   0.00000
 ESP charges with hydrogens summed into heavy atoms:
               1
     1  C   -0.112783
     2  C    0.258626
     3  N    0.527944
     4  C    0.886688
     5  O   -0.819760
     6  O   -0.740715
 Charge=   0.00000 Dipole=   -12.5651     1.6277     0.9841 Tot=    12.7083
 -----------------------------------------------------------------

              Electrostatic Properties (Atomic Units)

 -----------------------------------------------------------------
    Center     Electric         -------- Electric Field --------
               Potential          X             Y             Z
 -----------------------------------------------------------------
    1 Atom    -14.683447
    2 Atom    -14.591346
    3 Atom    -18.152031
    4 Atom    -14.630392
    5 Atom    -22.401498
    6 Atom    -22.426189
    7 Atom     -0.904904
    8 Atom     -0.904325
    9 Atom     -0.918948
   10 Atom     -1.048824
   11 Atom     -1.051172
   12 Atom     -1.091533
   13 Atom     -1.100455
 -----------------------------------------------------------------
 Leave Link  602 at Wed Apr 29 13:39:54 2026, MaxMem=    33554432 cpu:         0.0
 (Enter /opt/g09/g09/l9999.exe)

 Test job not archived.
 1\1\GINC-KADET27\SP\RHF\def2SVP\C3H7N1O2\MDOROHUN\29-Apr-2026\0\\#P RH
 F/def2SVP Pop(Full,ESP) GFInput IOP(6/7=3)\\ESP dla struktury zoptymal
 izowanej z wodą\\0,1\C\C,1,1.520984\N,2,1.48567,1,110.25\C,1,1.540275
 ,2,114.58,3,56.546,0\O,4,1.248404,1,116.114,2,-26.52,0\O,4,1.219854,1,
 117.066,2,155.191,0\H,3,1.010682,2,112.381,1,70.944,0\H,3,1.009776,2,1
 12.705,1,-167.202,0\H,3,1.036515,2,104.438,1,-46.75,0\H,2,1.086509,1,1
 12.094,4,177.526,0\H,2,1.087008,1,110.981,4,-61.08,0\H,1,1.094289,4,10
 7.571,6,-82.,0\H,1,1.08883,4,109.125,6,33.019,0\\Version=ES64L-G09RevD
 .01\State=1-A\HF=-321.5814063\RMSD=4.457e-09\Dipole=-0.0827253,2.69127
 87,4.2046531\Quadrupole=0.5781281,-1.1910429,0.6129148,3.4263391,2.159
 7209,-1.2339312\PG=C01 [X(C3H7N1O2)]\\@


       THE DEATH-KNELL OF THE ATOM

 SO THE ATOMS IN TURN, WE NOW CLEARLY DISCERN,
 FLY TO BITS WITH THE UTMOST FACILITY;
 THEY WEND ON THEIR WAY, AND, IN SPLITTING, DISPLAY
 AN ABSOLUTE LACK OF STABILITY.

          SIR WM. RAMSAY, 1905
 Job cpu time:       0 days  0 hours  0 minutes  1.1 seconds.
 File lengths (MBytes):  RWF=      7 Int=      0 D2E=      0 Chk=      2 Scr=      1
 Normal termination of Gaussian 09 at Wed Apr 29 13:39:54 2026.
