 Entering Gaussian System, Link 0=/opt/g09/g09/g09
 Input=n2_B3LYP.inp
 Output=n2_B3LYP.log
 Initial command:
 /opt/g09/g09/l1.exe "/tmp/Gau-12192.inp" -scrdir="/tmp/"
 Entering Link 1 = /opt/g09/g09/l1.exe PID=     12194.
  
 Copyright (c) 1988,1990,1992,1993,1995,1998,2003,2009,2013,
            Gaussian, Inc.  All Rights Reserved.
  
 This is part of the Gaussian(R) 09 program.  It is based on
 the Gaussian(R) 03 system (copyright 2003, Gaussian, Inc.),
 the Gaussian(R) 98 system (copyright 1998, Gaussian, Inc.),
 the Gaussian(R) 94 system (copyright 1995, Gaussian, Inc.),
 the Gaussian 92(TM) system (copyright 1992, Gaussian, Inc.),
 the Gaussian 90(TM) system (copyright 1990, Gaussian, Inc.),
 the Gaussian 88(TM) system (copyright 1988, Gaussian, Inc.),
 the Gaussian 86(TM) system (copyright 1986, Carnegie Mellon
 University), and the Gaussian 82(TM) system (copyright 1983,
 Carnegie Mellon University). Gaussian is a federally registered
 trademark of Gaussian, Inc.
  
 This software contains proprietary and confidential information,
 including trade secrets, belonging to Gaussian, Inc.
  
 This software is provided under written license and may be
 used, copied, transmitted, or stored only in accord with that
 written license.
  
 The following legend is applicable only to US Government
 contracts under FAR:
  
                    RESTRICTED RIGHTS LEGEND
  
 Use, reproduction and disclosure by the US Government is
 subject to restrictions as set forth in subparagraphs (a)
 and (c) of the Commercial Computer Software - Restricted
 Rights clause in FAR 52.227-19.
  
 Gaussian, Inc.
 340 Quinnipiac St., Bldg. 40, Wallingford CT 06492
  
  
 ---------------------------------------------------------------
 Warning -- This program may not be used in any manner that
 competes with the business of Gaussian, Inc. or will provide
 assistance to any competitor of Gaussian, Inc.  The licensee
 of this program is prohibited from giving any competitor of
 Gaussian, Inc. access to this program.  By using this program,
 the user acknowledges that Gaussian, Inc. is engaged in the
 business of creating and licensing software in the field of
 computational chemistry and represents and warrants to the
 licensee that it is not a competitor of Gaussian, Inc. and that
 it will not use this program in any manner prohibited above.
 ---------------------------------------------------------------
  

 Cite this work as:
 Gaussian 09, Revision D.01,
 M. J. Frisch, G. W. Trucks, H. B. Schlegel, G. E. Scuseria, 
 M. A. Robb, J. R. Cheeseman, G. Scalmani, V. Barone, B. Mennucci, 
 G. A. Petersson, H. Nakatsuji, M. Caricato, X. Li, H. P. Hratchian, 
 A. F. Izmaylov, J. Bloino, G. Zheng, J. L. Sonnenberg, M. Hada, 
 M. Ehara, K. Toyota, R. Fukuda, J. Hasegawa, M. Ishida, T. Nakajima, 
 Y. Honda, O. Kitao, H. Nakai, T. Vreven, J. A. Montgomery, Jr., 
 J. E. Peralta, F. Ogliaro, M. Bearpark, J. J. Heyd, E. Brothers, 
 K. N. Kudin, V. N. Staroverov, T. Keith, R. Kobayashi, J. Normand, 
 K. Raghavachari, A. Rendell, J. C. Burant, S. S. Iyengar, J. Tomasi, 
 M. Cossi, N. Rega, J. M. Millam, M. Klene, J. E. Knox, J. B. Cross, 
 V. Bakken, C. Adamo, J. Jaramillo, R. Gomperts, R. E. Stratmann, 
 O. Yazyev, A. J. Austin, R. Cammi, C. Pomelli, J. W. Ochterski, 
 R. L. Martin, K. Morokuma, V. G. Zakrzewski, G. A. Voth, 
 P. Salvador, J. J. Dannenberg, S. Dapprich, A. D. Daniels, 
 O. Farkas, J. B. Foresman, J. V. Ortiz, J. Cioslowski, 
 and D. J. Fox, Gaussian, Inc., Wallingford CT, 2013.
 
 ******************************************
 Gaussian 09:  ES64L-G09RevD.01 24-Apr-2013
                25-Mar-2026 
 ******************************************
 %chk=n2_B3LYP.chk
 --------------------------------------------------
 #P B3LYP/6-31G(d) Opt GFInput Pop=Full IOP(6/80=1)
 --------------------------------------------------
 1/14=-1,18=20,19=15,26=3,38=1/1,3;
 2/9=110,12=2,17=6,18=5,40=1/2;
 3/5=1,6=6,7=1,11=2,16=1,24=10,25=1,30=1,71=1,74=-5/1,2,3;
 4//1;
 5/5=2,38=5/2;
 6/7=3,28=1,80=1/1;
 7//1,2,3,16;
 1/14=-1,18=20,19=15,26=3/3(2);
 2/9=110/2;
 99//99;
 2/9=110/2;
 3/5=1,6=6,7=1,11=2,16=1,25=1,30=1,71=1,74=-5/1,2,3;
 4/5=5,16=3,69=1/1;
 5/5=2,38=5/2;
 7//1,2,3,16;
 1/14=-1,18=20,19=15,26=3/3(-5);
 2/9=110/2;
 6/7=3,19=2,28=1,80=1/1;
 99/9=1/99;
 Leave Link    1 at Wed Mar 25 13:17:48 2026, MaxMem=           0 cpu:         0.0
 (Enter /opt/g09/g09/l101.exe)
 ---------------------------------------
 optymalizacja geometrii n2 metoda B3LYP
 ---------------------------------------
 Symbolic Z-matrix:
 Charge =  0 Multiplicity = 1
 N
 N                    1     1.098 
 
 NAtoms=      2 NQM=        2 NQMF=       0 NMMI=      0 NMMIF=      0
                NMic=       0 NMicF=      0.
                    Isotopes and Nuclear Properties:
 (Nuclear quadrupole moments (NQMom) in fm**2, nuclear magnetic moments (NMagM)
  in nuclear magnetons)

  Atom         1           2
 IAtWgt=          14          14
 AtmWgt=  14.0030740  14.0030740
 NucSpn=           2           2
 AtZEff=   0.0000000   0.0000000
 NQMom=    2.0440000   2.0440000
 NMagM=    0.4037610   0.4037610
 AtZNuc=   7.0000000   7.0000000
 Leave Link  101 at Wed Mar 25 13:17:48 2026, MaxMem=    33554432 cpu:         0.0
 (Enter /opt/g09/g09/l103.exe)

 GradGradGradGradGradGradGradGradGradGradGradGradGradGradGradGradGradGrad
 Berny optimization.
 Initialization pass.
                           ----------------------------
                           !    Initial Parameters    !
                           ! (Angstroms and Degrees)  !
 --------------------------                            --------------------------
 ! Name  Definition              Value          Derivative Info.                !
 --------------------------------------------------------------------------------
 ! R1    R(1,2)                  1.098          estimate D2E/DX2                !
 --------------------------------------------------------------------------------
 Trust Radius=3.00D-01 FncErr=1.00D-07 GrdErr=1.00D-06
 Number of steps in this run=     20 maximum allowed number of steps=    100.
 GradGradGradGradGradGradGradGradGradGradGradGradGradGradGradGradGradGrad

 Leave Link  103 at Wed Mar 25 13:17:48 2026, MaxMem=    33554432 cpu:         0.0
 (Enter /opt/g09/g09/l202.exe)
                          Input orientation:                          
 ---------------------------------------------------------------------
 Center     Atomic      Atomic             Coordinates (Angstroms)
 Number     Number       Type             X           Y           Z
 ---------------------------------------------------------------------
      1          7           0        0.000000    0.000000    0.000000
      2          7           0        0.000000    0.000000    1.098000
 ---------------------------------------------------------------------
 Stoichiometry    N2
 Framework group  D*H[C*(N.N)]
 Deg. of freedom     1
 Full point group                 D*H     NOp   8
 Largest Abelian subgroup         D2H     NOp   8
 Largest concise Abelian subgroup C2      NOp   2
                         Standard orientation:                         
 ---------------------------------------------------------------------
 Center     Atomic      Atomic             Coordinates (Angstroms)
 Number     Number       Type             X           Y           Z
 ---------------------------------------------------------------------
      1          7           0        0.000000    0.000000    0.549000
      2          7           0        0.000000    0.000000   -0.549000
 ---------------------------------------------------------------------
 Rotational constants (GHZ):      0.0000000     59.8713605     59.8713605
 Leave Link  202 at Wed Mar 25 13:17:48 2026, MaxMem=    33554432 cpu:         0.0
 (Enter /opt/g09/g09/l301.exe)
 Standard basis: 6-31G(d) (6D, 7F)
 Ernie: Thresh=  0.10000D-02 Tol=  0.10000D-05 Strict=F.
 AO basis set in the form of general basis input (Overlap normalization):
      1 0
 S   6 1.00       0.000000000000
      0.4173511460D+04  0.1834772160D-02
      0.6274579110D+03  0.1399462700D-01
      0.1429020930D+03  0.6858655181D-01
      0.4023432930D+02  0.2322408730D+00
      0.1282021290D+02  0.4690699481D+00
      0.4390437010D+01  0.3604551991D+00
 SP   3 1.00       0.000000000000
      0.1162636186D+02 -0.1149611817D+00  0.6757974388D-01
      0.2716279807D+01 -0.1691174786D+00  0.3239072959D+00
      0.7722183966D+00  0.1145851947D+01  0.7408951398D+00
 SP   1 1.00       0.000000000000
      0.2120314975D+00  0.1000000000D+01  0.1000000000D+01
 D   1 1.00       0.000000000000
      0.8000000000D+00  0.1000000000D+01
 ****
      2 0
 S   6 1.00       0.000000000000
      0.4173511460D+04  0.1834772160D-02
      0.6274579110D+03  0.1399462700D-01
      0.1429020930D+03  0.6858655181D-01
      0.4023432930D+02  0.2322408730D+00
      0.1282021290D+02  0.4690699481D+00
      0.4390437010D+01  0.3604551991D+00
 SP   3 1.00       0.000000000000
      0.1162636186D+02 -0.1149611817D+00  0.6757974388D-01
      0.2716279807D+01 -0.1691174786D+00  0.3239072959D+00
      0.7722183966D+00  0.1145851947D+01  0.7408951398D+00
 SP   1 1.00       0.000000000000
      0.2120314975D+00  0.1000000000D+01  0.1000000000D+01
 D   1 1.00       0.000000000000
      0.8000000000D+00  0.1000000000D+01
 ****

 There are     8 symmetry adapted cartesian basis functions of AG  symmetry.
 There are     1 symmetry adapted cartesian basis functions of B1G symmetry.
 There are     3 symmetry adapted cartesian basis functions of B2G symmetry.
 There are     3 symmetry adapted cartesian basis functions of B3G symmetry.
 There are     1 symmetry adapted cartesian basis functions of AU  symmetry.
 There are     8 symmetry adapted cartesian basis functions of B1U symmetry.
 There are     3 symmetry adapted cartesian basis functions of B2U symmetry.
 There are     3 symmetry adapted cartesian basis functions of B3U symmetry.
 There are     8 symmetry adapted basis functions of AG  symmetry.
 There are     1 symmetry adapted basis functions of B1G symmetry.
 There are     3 symmetry adapted basis functions of B2G symmetry.
 There are     3 symmetry adapted basis functions of B3G symmetry.
 There are     1 symmetry adapted basis functions of AU  symmetry.
 There are     8 symmetry adapted basis functions of B1U symmetry.
 There are     3 symmetry adapted basis functions of B2U symmetry.
 There are     3 symmetry adapted basis functions of B3U symmetry.
    30 basis functions,    56 primitive gaussians,    30 cartesian basis functions
     7 alpha electrons        7 beta electrons
       nuclear repulsion energy        23.6153763396 Hartrees.
 IExCor=  402 DFT=T Ex+Corr=B3LYP ExCW=0 ScaHFX=  0.200000
 ScaDFX=  0.800000  0.720000  1.000000  0.810000 ScalE2=  1.000000  1.000000
 IRadAn=      0 IRanWt=     -1 IRanGd=            0 ICorTp=0 IEmpDi=  4
 NAtoms=    2 NActive=    2 NUniq=    1 SFac= 4.00D+00 NAtFMM=   60 NAOKFM=F Big=F
 Integral buffers will be    131072 words long.
 Raffenetti 2 integral format.
 Two-electron integral symmetry is turned on.
 Leave Link  301 at Wed Mar 25 13:17:48 2026, MaxMem=    33554432 cpu:         0.0
 (Enter /opt/g09/g09/l302.exe)
 NPDir=0 NMtPBC=     1 NCelOv=     1 NCel=       1 NClECP=     1 NCelD=      1
         NCelK=      1 NCelE2=     1 NClLst=     1 CellRange=     0.0.
 One-electron integrals computed using PRISM.
 One-electron integral symmetry used in STVInt
 NBasis=    30 RedAO= T EigKep=  6.14D-03  NBF=     8     1     3     3     1     8     3     3
 NBsUse=    30 1.00D-06 EigRej= -1.00D+00 NBFU=     8     1     3     3     1     8     3     3
 Precomputing XC quadrature grid using
 IXCGrd= 4 IRadAn=           0 IRanWt=          -1 IRanGd=           0 AccXCQ= 0.00D+00.
 Generated NRdTot=       0 NPtTot=           0 NUsed=           0 NTot=          32
 NSgBfM=    30    30    30    30    30 MxSgAt=     2 MxSgA2=     2.
 Leave Link  302 at Wed Mar 25 13:17:48 2026, MaxMem=    33554432 cpu:         0.0
 (Enter /opt/g09/g09/l303.exe)
 DipDrv:  MaxL=1.
 Leave Link  303 at Wed Mar 25 13:17:48 2026, MaxMem=    33554432 cpu:         0.0
 (Enter /opt/g09/g09/l401.exe)
 ExpMin= 2.12D-01 ExpMax= 4.17D+03 ExpMxC= 6.27D+02 IAcc=1 IRadAn=         1 AccDes= 0.00D+00
 Harris functional with IExCor=  402 and IRadAn=       1 diagonalized for initial guess.
 HarFok:  IExCor=  402 AccDes= 0.00D+00 IRadAn=         1 IDoV= 1 UseB2=F ITyADJ=14
 ICtDFT=  3500011 ScaDFX=  1.000000  1.000000  1.000000  1.000000
 FoFCou: FMM=F IPFlag=           0 FMFlag=      100000 FMFlg1=           0
         NFxFlg=           0 DoJE=T BraDBF=F KetDBF=T FulRan=T
         wScrn=  0.000000 ICntrl=     500 IOpCl=  0 I1Cent=   200000004 NGrid=           0
         NMat0=    1 NMatS0=      1 NMatT0=    0 NMatD0=    1 NMtDS0=    0 NMtDT0=    0
 Petite list used in FoFCou.
 Harris En= -109.492629230136    
 JPrj=0 DoOrth=F DoCkMO=F.
 Initial guess orbital symmetries:
       Occupied  (SGG) (SGU) (SGG) (SGU) (PIU) (PIU) (SGG)
       Virtual   (PIG) (PIG) (SGU) (SGG) (PIU) (PIU) (SGG) (PIG)
                 (PIG) (SGU) (SGU) (DLTG) (DLTG) (PIU) (PIU) (DLTU)
                 (DLTU) (SGG) (PIG) (PIG) (SGU) (SGG) (SGU)
 The electronic state of the initial guess is 1-SGG.
 Leave Link  401 at Wed Mar 25 13:17:48 2026, MaxMem=    33554432 cpu:         0.0
 (Enter /opt/g09/g09/l502.exe)
 Closed shell SCF:
 Using DIIS extrapolation, IDIIS=  1040.
 Integral symmetry usage will be decided dynamically.
 Keep R1 ints in memory in symmetry-blocked form, NReq=992529.
 IVT=       21766 IEndB=       21766 NGot=    33554432 MDV=    33514620
 LenX=    33514620 LenY=    33513279
 Requested convergence on RMS density matrix=1.00D-08 within 128 cycles.
 Requested convergence on MAX density matrix=1.00D-06.
 Requested convergence on             energy=1.00D-06.
 No special actions if energy rises.
 FoFCou: FMM=F IPFlag=           0 FMFlag=           0 FMFlg1=           0
         NFxFlg=           0 DoJE=F BraDBF=F KetDBF=F FulRan=T
         wScrn=  0.000000 ICntrl=     600 IOpCl=  0 I1Cent=           0 NGrid=           0
         NMat0=    1 NMatS0=    465 NMatT0=    0 NMatD0=    1 NMtDS0=    0 NMtDT0=    0
 Petite list used in FoFCou.
 Integral accuracy reduced to 1.0D-05 until final iterations.

 Cycle   1  Pass 0  IDiag  1:
 E= -109.520130055217    
 DIIS: error= 1.45D-02 at cycle   1 NSaved=   1.
 NSaved= 1 IEnMin= 1 EnMin= -109.520130055217     IErMin= 1 ErrMin= 1.45D-02
 ErrMax= 1.45D-02  0.00D+00 EMaxC= 1.00D-01 BMatC= 5.91D-03 BMatP= 5.91D-03
 IDIUse=3 WtCom= 8.55D-01 WtEn= 1.45D-01
 Coeff-Com:  0.100D+01
 Coeff-En:   0.100D+01
 Coeff:      0.100D+01
 Gap=     0.406 Goal=   None    Shift=    0.000
 GapD=    0.406 DampG=2.000 DampE=0.500 DampFc=1.0000 IDamp=-1.
 RMSDP=2.59D-03 MaxDP=1.63D-02              OVMax= 2.63D-02

 Cycle   2  Pass 0  IDiag  1:
 E= -109.523034545250     Delta-E=       -0.002904490033 Rises=F Damp=F
 DIIS: error= 6.19D-03 at cycle   2 NSaved=   2.
 NSaved= 2 IEnMin= 2 EnMin= -109.523034545250     IErMin= 2 ErrMin= 6.19D-03
 ErrMax= 6.19D-03  0.00D+00 EMaxC= 1.00D-01 BMatC= 1.00D-03 BMatP= 5.91D-03
 IDIUse=3 WtCom= 9.38D-01 WtEn= 6.19D-02
 Coeff-Com:  0.246D+00 0.754D+00
 Coeff-En:   0.000D+00 0.100D+01
 Coeff:      0.231D+00 0.769D+00
 Gap=     0.407 Goal=   None    Shift=    0.000
 RMSDP=1.28D-03 MaxDP=8.69D-03 DE=-2.90D-03 OVMax= 9.99D-03

 Cycle   3  Pass 0  IDiag  1:
 E= -109.523895015377     Delta-E=       -0.000860470127 Rises=F Damp=F
 DIIS: error= 1.63D-03 at cycle   3 NSaved=   3.
 NSaved= 3 IEnMin= 3 EnMin= -109.523895015377     IErMin= 3 ErrMin= 1.63D-03
 ErrMax= 1.63D-03  0.00D+00 EMaxC= 1.00D-01 BMatC= 7.01D-05 BMatP= 1.00D-03
 IDIUse=3 WtCom= 9.84D-01 WtEn= 1.63D-02
 Coeff-Com:  0.215D-02 0.209D+00 0.788D+00
 Coeff-En:   0.000D+00 0.000D+00 0.100D+01
 Coeff:      0.212D-02 0.206D+00 0.792D+00
 Gap=     0.407 Goal=   None    Shift=    0.000
 RMSDP=2.73D-04 MaxDP=1.90D-03 DE=-8.60D-04 OVMax= 2.31D-03

 Cycle   4  Pass 0  IDiag  1:
 E= -109.523960063206     Delta-E=       -0.000065047829 Rises=F Damp=F
 DIIS: error= 1.11D-04 at cycle   4 NSaved=   4.
 NSaved= 4 IEnMin= 4 EnMin= -109.523960063206     IErMin= 4 ErrMin= 1.11D-04
 ErrMax= 1.11D-04  0.00D+00 EMaxC= 1.00D-01 BMatC= 2.04D-07 BMatP= 7.01D-05
 IDIUse=3 WtCom= 9.99D-01 WtEn= 1.11D-03
 Coeff-Com: -0.605D-03 0.438D-01 0.186D+00 0.770D+00
 Coeff-En:   0.000D+00 0.000D+00 0.000D+00 0.100D+01
 Coeff:     -0.604D-03 0.437D-01 0.186D+00 0.771D+00
 Gap=     0.407 Goal=   None    Shift=    0.000
 RMSDP=1.36D-05 MaxDP=1.55D-04 DE=-6.50D-05 OVMax= 9.09D-05

 Cycle   5  Pass 0  IDiag  1:
 E= -109.523960208973     Delta-E=       -0.000000145767 Rises=F Damp=F
 DIIS: error= 2.91D-06 at cycle   5 NSaved=   5.
 NSaved= 5 IEnMin= 5 EnMin= -109.523960208973     IErMin= 5 ErrMin= 2.91D-06
 ErrMax= 2.91D-06  0.00D+00 EMaxC= 1.00D-01 BMatC= 1.78D-10 BMatP= 2.04D-07
 IDIUse=1 WtCom= 1.00D+00 WtEn= 0.00D+00
 Coeff-Com: -0.434D-04-0.244D-02-0.863D-02-0.333D-01 0.104D+01
 Coeff:     -0.434D-04-0.244D-02-0.863D-02-0.333D-01 0.104D+01
 Gap=     0.407 Goal=   None    Shift=    0.000
 RMSDP=6.20D-07 MaxDP=4.69D-06 DE=-1.46D-07 OVMax= 5.01D-06

 Initial convergence to 1.0D-05 achieved.  Increase integral accuracy.
 Cycle   6  Pass 1  IDiag  1:
 E= -109.523965381397     Delta-E=       -0.000005172424 Rises=F Damp=F
 DIIS: error= 1.81D-06 at cycle   1 NSaved=   1.
 NSaved= 1 IEnMin= 1 EnMin= -109.523965381397     IErMin= 1 ErrMin= 1.81D-06
 ErrMax= 1.81D-06  0.00D+00 EMaxC= 1.00D-01 BMatC= 5.14D-11 BMatP= 5.14D-11
 IDIUse=1 WtCom= 1.00D+00 WtEn= 0.00D+00
 Coeff-Com:  0.100D+01
 Coeff:      0.100D+01
 Gap=     0.407 Goal=   None    Shift=    0.000
 RMSDP=6.20D-07 MaxDP=4.69D-06 DE=-5.17D-06 OVMax= 1.95D-06

 Cycle   7  Pass 1  IDiag  1:
 E= -109.523965381422     Delta-E=       -0.000000000025 Rises=F Damp=F
 DIIS: error= 9.18D-08 at cycle   2 NSaved=   2.
 NSaved= 2 IEnMin= 2 EnMin= -109.523965381422     IErMin= 2 ErrMin= 9.18D-08
 ErrMax= 9.18D-08  0.00D+00 EMaxC= 1.00D-01 BMatC= 2.57D-13 BMatP= 5.14D-11
 IDIUse=1 WtCom= 1.00D+00 WtEn= 0.00D+00
 Coeff-Com: -0.137D-01 0.101D+01
 Coeff:     -0.137D-01 0.101D+01
 Gap=     0.407 Goal=   None    Shift=    0.000
 RMSDP=4.65D-08 MaxDP=6.76D-07 DE=-2.50D-11 OVMax= 2.39D-07

 Cycle   8  Pass 1  IDiag  1:
 E= -109.523965381422     Delta-E=        0.000000000000 Rises=F Damp=F
 DIIS: error= 5.74D-08 at cycle   3 NSaved=   3.
 NSaved= 3 IEnMin= 2 EnMin= -109.523965381422     IErMin= 3 ErrMin= 5.74D-08
 ErrMax= 5.74D-08  0.00D+00 EMaxC= 1.00D-01 BMatC= 8.69D-14 BMatP= 2.57D-13
 IDIUse=1 WtCom= 1.00D+00 WtEn= 0.00D+00
 Coeff-Com: -0.935D-02 0.375D+00 0.634D+00
 Coeff:     -0.935D-02 0.375D+00 0.634D+00
 Gap=     0.407 Goal=   None    Shift=    0.000
 RMSDP=1.01D-08 MaxDP=7.54D-08 DE= 2.27D-13 OVMax= 8.10D-08

 Cycle   9  Pass 1  IDiag  1:
 E= -109.523965381422     Delta-E=        0.000000000000 Rises=F Damp=F
 DIIS: error= 2.63D-09 at cycle   4 NSaved=   4.
 NSaved= 4 IEnMin= 4 EnMin= -109.523965381422     IErMin= 4 ErrMin= 2.63D-09
 ErrMax= 2.63D-09  0.00D+00 EMaxC= 1.00D-01 BMatC= 1.23D-16 BMatP= 8.69D-14
 IDIUse=1 WtCom= 1.00D+00 WtEn= 0.00D+00
 Coeff-Com:  0.301D-03-0.143D-01 0.121D-01 0.100D+01
 Coeff:      0.301D-03-0.143D-01 0.121D-01 0.100D+01
 Gap=     0.407 Goal=   None    Shift=    0.000
 RMSDP=3.47D-10 MaxDP=2.71D-09 DE=-3.41D-13 OVMax= 3.95D-09

 SCF Done:  E(RB3LYP) =  -109.523965381     A.U. after    9 cycles
            NFock=  9  Conv=0.35D-09     -V/T= 2.0093
 KE= 1.085176573115D+02 PE=-3.029856399717D+02 EE= 6.132864093915D+01
 Leave Link  502 at Wed Mar 25 13:17:48 2026, MaxMem=    33554432 cpu:         0.0
 (Enter /opt/g09/g09/l601.exe)
 Copying SCF densities to generalized density rwf, IOpCl= 0 IROHF=0.

 **********************************************************************

            Population analysis using the SCF density.

 **********************************************************************

 Orbital symmetries:
       Occupied  (SGG) (SGU) (SGG) (SGU) (PIU) (PIU) (SGG)
       Virtual   (PIG) (PIG) (SGU) (SGG) (PIU) (PIU) (SGG) (PIG)
                 (PIG) (SGU) (SGU) (DLTG) (DLTG) (PIU) (PIU) (DLTU)
                 (DLTU) (SGG) (PIG) (PIG) (SGU) (SGG) (SGU)
 The electronic state is 1-SGG.
 Alpha  occ. eigenvalues --  -14.44500 -14.44324  -1.12830  -0.55137  -0.46475
 Alpha  occ. eigenvalues --   -0.46475  -0.42715
 Alpha virt. eigenvalues --   -0.02054  -0.02054   0.41693   0.58915   0.60445
 Alpha virt. eigenvalues --    0.60445   0.64033   0.75246   0.75246   0.79476
 Alpha virt. eigenvalues --    1.24661   1.44752   1.44752   1.55467   1.55467
 Alpha virt. eigenvalues --    1.94368   1.94368   2.41054   2.60124   2.60124
 Alpha virt. eigenvalues --    2.83185   3.29102   3.59430
     Molecular Orbital Coefficients:
                           1         2         3         4         5
                       (SGG)--O  (SGU)--O  (SGG)--O  (SGU)--O  (PIU)--O
     Eigenvalues --   -14.44500 -14.44324  -1.12830  -0.55137  -0.46475
   1 1   N  1S          0.70193   0.70211  -0.16078  -0.15209   0.00000
   2        2S          0.02479   0.02464   0.33937   0.33357   0.00000
   3        2PX         0.00000   0.00000   0.00000   0.00000   0.45393
   4        2PY         0.00000   0.00000   0.00000   0.00000   0.00000
   5        2PZ        -0.00122  -0.00224  -0.23121   0.21604   0.00000
   6        3S          0.00197   0.00556   0.18900   0.53545   0.00000
   7        3PX         0.00000   0.00000   0.00000   0.00000   0.23274
   8        3PY         0.00000   0.00000   0.00000   0.00000   0.00000
   9        3PZ         0.00043  -0.00161  -0.03231   0.06342   0.00000
  10        4XX        -0.00569  -0.00606  -0.01369  -0.00114   0.00000
  11        4YY        -0.00569  -0.00606  -0.01369  -0.00114   0.00000
  12        4ZZ        -0.00575  -0.00407   0.02132  -0.03360   0.00000
  13        4XY         0.00000   0.00000   0.00000   0.00000   0.00000
  14        4XZ         0.00000   0.00000   0.00000   0.00000  -0.03897
  15        4YZ         0.00000   0.00000   0.00000   0.00000   0.00000
  16 2   N  1S          0.70193  -0.70211  -0.16078   0.15209   0.00000
  17        2S          0.02479  -0.02464   0.33937  -0.33357   0.00000
  18        2PX         0.00000   0.00000   0.00000   0.00000   0.45393
  19        2PY         0.00000   0.00000   0.00000   0.00000   0.00000
  20        2PZ         0.00122  -0.00224   0.23121   0.21604   0.00000
  21        3S          0.00197  -0.00556   0.18900  -0.53545   0.00000
  22        3PX         0.00000   0.00000   0.00000   0.00000   0.23274
  23        3PY         0.00000   0.00000   0.00000   0.00000   0.00000
  24        3PZ        -0.00043  -0.00161   0.03231   0.06342   0.00000
  25        4XX        -0.00569   0.00606  -0.01369   0.00114   0.00000
  26        4YY        -0.00569   0.00606  -0.01369   0.00114   0.00000
  27        4ZZ        -0.00575   0.00407   0.02132   0.03360   0.00000
  28        4XY         0.00000   0.00000   0.00000   0.00000   0.00000
  29        4XZ         0.00000   0.00000   0.00000   0.00000   0.03897
  30        4YZ         0.00000   0.00000   0.00000   0.00000   0.00000
                           6         7         8         9        10
                       (PIU)--O  (SGG)--O  (PIG)--V  (PIG)--V  (SGU)--V
     Eigenvalues --    -0.46475  -0.42715  -0.02054  -0.02054   0.41693
   1 1   N  1S          0.00000  -0.05917   0.00000   0.00000  -0.09900
   2        2S          0.00000   0.10555   0.00000   0.00000   0.24459
   3        2PX         0.00000   0.00000   0.50436   0.00000   0.00000
   4        2PY         0.45393   0.00000   0.00000   0.50436   0.00000
   5        2PZ         0.00000   0.45871   0.00000   0.00000  -0.11202
   6        3S          0.00000   0.34195   0.00000   0.00000   3.95360
   7        3PX         0.00000   0.00000   0.56519   0.00000   0.00000
   8        3PY         0.23274   0.00000   0.00000   0.56519   0.00000
   9        3PZ         0.00000   0.19375   0.00000   0.00000  -2.62558
  10        4XX         0.00000   0.00264   0.00000   0.00000   0.00063
  11        4YY         0.00000   0.00264   0.00000   0.00000   0.00063
  12        4ZZ         0.00000  -0.02888   0.00000   0.00000   0.04887
  13        4XY         0.00000   0.00000   0.00000   0.00000   0.00000
  14        4XZ         0.00000   0.00000   0.01331   0.00000   0.00000
  15        4YZ        -0.03897   0.00000   0.00000   0.01331   0.00000
  16 2   N  1S          0.00000  -0.05917   0.00000   0.00000   0.09900
  17        2S          0.00000   0.10555   0.00000   0.00000  -0.24459
  18        2PX         0.00000   0.00000  -0.50436   0.00000   0.00000
  19        2PY         0.45393   0.00000   0.00000  -0.50436   0.00000
  20        2PZ         0.00000  -0.45871   0.00000   0.00000  -0.11202
  21        3S          0.00000   0.34195   0.00000   0.00000  -3.95360
  22        3PX         0.00000   0.00000  -0.56519   0.00000   0.00000
  23        3PY         0.23274   0.00000   0.00000  -0.56519   0.00000
  24        3PZ         0.00000  -0.19375   0.00000   0.00000  -2.62558
  25        4XX         0.00000   0.00264   0.00000   0.00000  -0.00063
  26        4YY         0.00000   0.00264   0.00000   0.00000  -0.00063
  27        4ZZ         0.00000  -0.02888   0.00000   0.00000  -0.04887
  28        4XY         0.00000   0.00000   0.00000   0.00000   0.00000
  29        4XZ         0.00000   0.00000   0.01331   0.00000   0.00000
  30        4YZ         0.03897   0.00000   0.00000   0.01331   0.00000
                          11        12        13        14        15
                       (SGG)--V  (PIU)--V  (PIU)--V  (SGG)--V  (PIG)--V
     Eigenvalues --     0.58915   0.60445   0.60445   0.64033   0.75246
   1 1   N  1S          0.02755   0.00000   0.00000   0.01122   0.00000
   2        2S          0.45100   0.00000   0.00000  -0.73700   0.00000
   3        2PX         0.00000   0.00000   0.63065   0.00000  -0.68622
   4        2PY         0.00000   0.63065   0.00000   0.00000   0.00000
   5        2PZ        -0.36399   0.00000   0.00000  -0.37323   0.00000
   6        3S         -0.29660   0.00000   0.00000   1.04071   0.00000
   7        3PX         0.00000   0.00000  -0.62734   0.00000   1.22227
   8        3PY         0.00000  -0.62734   0.00000   0.00000   0.00000
   9        3PZ         0.90074   0.00000   0.00000   0.37249   0.00000
  10        4XX         0.04605   0.00000   0.00000  -0.14972   0.00000
  11        4YY         0.04605   0.00000   0.00000  -0.14972   0.00000
  12        4ZZ         0.15105   0.00000   0.00000  -0.17699   0.00000
  13        4XY         0.00000   0.00000   0.00000   0.00000   0.00000
  14        4XZ         0.00000   0.00000  -0.08346   0.00000  -0.04924
  15        4YZ         0.00000  -0.08346   0.00000   0.00000   0.00000
  16 2   N  1S          0.02755   0.00000   0.00000   0.01122   0.00000
  17        2S          0.45100   0.00000   0.00000  -0.73700   0.00000
  18        2PX         0.00000   0.00000   0.63065   0.00000   0.68622
  19        2PY         0.00000   0.63065   0.00000   0.00000   0.00000
  20        2PZ         0.36399   0.00000   0.00000   0.37323   0.00000
  21        3S         -0.29660   0.00000   0.00000   1.04071   0.00000
  22        3PX         0.00000   0.00000  -0.62734   0.00000  -1.22227
  23        3PY         0.00000  -0.62734   0.00000   0.00000   0.00000
  24        3PZ        -0.90074   0.00000   0.00000  -0.37249   0.00000
  25        4XX         0.04605   0.00000   0.00000  -0.14972   0.00000
  26        4YY         0.04605   0.00000   0.00000  -0.14972   0.00000
  27        4ZZ         0.15105   0.00000   0.00000  -0.17699   0.00000
  28        4XY         0.00000   0.00000   0.00000   0.00000   0.00000
  29        4XZ         0.00000   0.00000   0.08346   0.00000  -0.04924
  30        4YZ         0.00000   0.08346   0.00000   0.00000   0.00000
                          16        17        18        19        20
                       (PIG)--V  (SGU)--V  (SGU)--V  (DLTG)--  (DLTG)--
     Eigenvalues --     0.75246   0.79476   1.24661   1.44752   1.44752
   1 1   N  1S          0.00000  -0.06745  -0.02097   0.00000   0.00000
   2        2S          0.00000  -0.25710  -1.27227   0.00000   0.00000
   3        2PX         0.00000   0.00000   0.00000   0.00000   0.00000
   4        2PY        -0.68622   0.00000   0.00000   0.00000   0.00000
   5        2PZ         0.00000  -0.72534   0.28820   0.00000   0.00000
   6        3S          0.00000   1.40354   6.99525   0.00000   0.00000
   7        3PX         0.00000   0.00000   0.00000   0.00000   0.00000
   8        3PY         1.22227   0.00000   0.00000   0.00000   0.00000
   9        3PZ         0.00000  -0.06721  -3.15770   0.00000   0.00000
  10        4XX         0.00000  -0.01464  -0.23387   0.56405   0.00000
  11        4YY         0.00000  -0.01464  -0.23387  -0.56405   0.00000
  12        4ZZ         0.00000  -0.31575   0.02192   0.00000   0.00000
  13        4XY         0.00000   0.00000   0.00000   0.00000   0.65131
  14        4XZ         0.00000   0.00000   0.00000   0.00000   0.00000
  15        4YZ        -0.04924   0.00000   0.00000   0.00000   0.00000
  16 2   N  1S          0.00000   0.06745   0.02097   0.00000   0.00000
  17        2S          0.00000   0.25710   1.27227   0.00000   0.00000
  18        2PX         0.00000   0.00000   0.00000   0.00000   0.00000
  19        2PY         0.68622   0.00000   0.00000   0.00000   0.00000
  20        2PZ         0.00000  -0.72534   0.28820   0.00000   0.00000
  21        3S          0.00000  -1.40354  -6.99525   0.00000   0.00000
  22        3PX         0.00000   0.00000   0.00000   0.00000   0.00000
  23        3PY        -1.22227   0.00000   0.00000   0.00000   0.00000
  24        3PZ         0.00000  -0.06721  -3.15770   0.00000   0.00000
  25        4XX         0.00000   0.01464   0.23387   0.56405   0.00000
  26        4YY         0.00000   0.01464   0.23387  -0.56405   0.00000
  27        4ZZ         0.00000   0.31575  -0.02192   0.00000   0.00000
  28        4XY         0.00000   0.00000   0.00000   0.00000   0.65131
  29        4XZ         0.00000   0.00000   0.00000   0.00000   0.00000
  30        4YZ        -0.04924   0.00000   0.00000   0.00000   0.00000
                          21        22        23        24        25
                       (PIU)--V  (PIU)--V  (DLTU)--  (DLTU)--  (SGG)--V
     Eigenvalues --     1.55467   1.55467   1.94368   1.94368   2.41054
   1 1   N  1S          0.00000   0.00000   0.00000   0.00000   0.12922
   2        2S          0.00000   0.00000   0.00000   0.00000   0.34561
   3        2PX         0.26616   0.00000   0.00000   0.00000   0.00000
   4        2PY         0.00000   0.26616   0.00000   0.00000   0.00000
   5        2PZ         0.00000   0.00000   0.00000   0.00000  -0.33373
   6        3S          0.00000   0.00000   0.00000   0.00000  -0.53455
   7        3PX        -0.05749   0.00000   0.00000   0.00000   0.00000
   8        3PY         0.00000  -0.05749   0.00000   0.00000   0.00000
   9        3PZ         0.00000   0.00000   0.00000   0.00000   0.56993
  10        4XX         0.00000   0.00000   0.67571   0.00000   0.67291
  11        4YY         0.00000   0.00000  -0.67571   0.00000   0.67291
  12        4ZZ         0.00000   0.00000   0.00000   0.00000  -0.55960
  13        4XY         0.00000   0.00000   0.00000   0.78024   0.00000
  14        4XZ         0.59920   0.00000   0.00000   0.00000   0.00000
  15        4YZ         0.00000   0.59920   0.00000   0.00000   0.00000
  16 2   N  1S          0.00000   0.00000   0.00000   0.00000   0.12922
  17        2S          0.00000   0.00000   0.00000   0.00000   0.34561
  18        2PX         0.26616   0.00000   0.00000   0.00000   0.00000
  19        2PY         0.00000   0.26616   0.00000   0.00000   0.00000
  20        2PZ         0.00000   0.00000   0.00000   0.00000   0.33373
  21        3S          0.00000   0.00000   0.00000   0.00000  -0.53455
  22        3PX        -0.05749   0.00000   0.00000   0.00000   0.00000
  23        3PY         0.00000  -0.05749   0.00000   0.00000   0.00000
  24        3PZ         0.00000   0.00000   0.00000   0.00000  -0.56993
  25        4XX         0.00000   0.00000  -0.67571   0.00000   0.67291
  26        4YY         0.00000   0.00000   0.67571   0.00000   0.67291
  27        4ZZ         0.00000   0.00000   0.00000   0.00000  -0.55960
  28        4XY         0.00000   0.00000   0.00000  -0.78024   0.00000
  29        4XZ        -0.59920   0.00000   0.00000   0.00000   0.00000
  30        4YZ         0.00000  -0.59920   0.00000   0.00000   0.00000
                          26        27        28        29        30
                       (PIG)--V  (PIG)--V  (SGU)--V  (SGG)--V  (SGU)--V
     Eigenvalues --     2.60124   2.60124   2.83185   3.29102   3.59430
   1 1   N  1S          0.00000   0.00000   0.00387  -0.24347  -0.35417
   2        2S          0.00000   0.00000   0.47403   1.28433   0.53584
   3        2PX        -0.24535   0.00000   0.00000   0.00000   0.00000
   4        2PY         0.00000  -0.24535   0.00000   0.00000   0.00000
   5        2PZ         0.00000   0.00000  -1.10927  -0.14092   0.42263
   6        3S          0.00000   0.00000   3.23965   0.81226   4.01899
   7        3PX        -0.48846   0.00000   0.00000   0.00000   0.00000
   8        3PY         0.00000  -0.48846   0.00000   0.00000   0.00000
   9        3PZ         0.00000   0.00000  -1.72377   0.05829  -1.26052
  10        4XX         0.00000   0.00000  -0.49982  -0.79064  -1.08252
  11        4YY         0.00000   0.00000  -0.49982  -0.79064  -1.08252
  12        4ZZ         0.00000   0.00000   1.34661  -1.10365  -1.19535
  13        4XY         0.00000   0.00000   0.00000   0.00000   0.00000
  14        4XZ         1.11618   0.00000   0.00000   0.00000   0.00000
  15        4YZ         0.00000   1.11618   0.00000   0.00000   0.00000
  16 2   N  1S          0.00000   0.00000  -0.00387  -0.24347   0.35417
  17        2S          0.00000   0.00000  -0.47403   1.28433  -0.53584
  18        2PX         0.24535   0.00000   0.00000   0.00000   0.00000
  19        2PY         0.00000   0.24535   0.00000   0.00000   0.00000
  20        2PZ         0.00000   0.00000  -1.10927   0.14092   0.42263
  21        3S          0.00000   0.00000  -3.23965   0.81226  -4.01899
  22        3PX         0.48846   0.00000   0.00000   0.00000   0.00000
  23        3PY         0.00000   0.48846   0.00000   0.00000   0.00000
  24        3PZ         0.00000   0.00000  -1.72377  -0.05829  -1.26052
  25        4XX         0.00000   0.00000   0.49982  -0.79064   1.08252
  26        4YY         0.00000   0.00000   0.49982  -0.79064   1.08252
  27        4ZZ         0.00000   0.00000  -1.34661  -1.10365   1.19535
  28        4XY         0.00000   0.00000   0.00000   0.00000   0.00000
  29        4XZ         1.11618   0.00000   0.00000   0.00000   0.00000
  30        4YZ         0.00000   1.11618   0.00000   0.00000   0.00000
     Density Matrix:
                           1         2         3         4         5
   1 1   N  1S          2.07631
   2        2S         -0.15369   0.47761
   3        2PX         0.00000   0.00000   0.41211
   4        2PY         0.00000   0.00000   0.00000   0.41211
   5        2PZ        -0.05051   0.08386   0.00000   0.00000   0.62109
   6        3S         -0.25353   0.55806   0.00000   0.00000   0.45763
   7        3PX         0.00000   0.00000   0.21130   0.00000   0.00000
   8        3PY         0.00000   0.00000   0.00000   0.21130   0.00000
   9        3PZ        -0.03349   0.06122   0.00000   0.00000   0.22010
  10        4XX        -0.01207  -0.01008   0.00000   0.00000   0.00830
  11        4YY        -0.01207  -0.01008   0.00000   0.00000   0.00830
  12        4ZZ        -0.00701  -0.01453   0.00000   0.00000  -0.05084
  13        4XY         0.00000   0.00000   0.00000   0.00000   0.00000
  14        4XZ         0.00000   0.00000  -0.03538   0.00000   0.00000
  15        4YZ         0.00000   0.00000   0.00000  -0.03538   0.00000
  16 2   N  1S          0.01194  -0.01995   0.00000   0.00000   0.08722
  17        2S         -0.01995   0.03010   0.00000   0.00000  -0.20418
  18        2PX         0.00000   0.00000   0.41211   0.00000   0.00000
  19        2PY         0.00000   0.00000   0.00000   0.41211   0.00000
  20        2PZ        -0.08722   0.20418   0.00000   0.00000  -0.43438
  21        3S          0.05659  -0.15693   0.00000   0.00000  -0.00502
  22        3PX         0.00000   0.00000   0.21130   0.00000   0.00000
  23        3PY         0.00000   0.00000   0.00000   0.21130   0.00000
  24        3PZ        -0.00962   0.02324   0.00000   0.00000  -0.16528
  25        4XX         0.00426  -0.00796   0.00000   0.00000   0.00924
  26        4YY         0.00426  -0.00796   0.00000   0.00000   0.00924
  27        4ZZ        -0.01601   0.03071   0.00000   0.00000  -0.02184
  28        4XY         0.00000   0.00000   0.00000   0.00000   0.00000
  29        4XZ         0.00000   0.00000   0.03538   0.00000   0.00000
  30        4YZ         0.00000   0.00000   0.00000   0.03538   0.00000
                           6         7         8         9        10
   6        3S          0.87877
   7        3PX         0.00000   0.10834
   8        3PY         0.00000   0.00000   0.10834
   9        3PZ         0.18819   0.00000   0.00000   0.08521
  10        4XX        -0.00468   0.00000   0.00000   0.00178   0.00053
  11        4YY        -0.00468   0.00000   0.00000   0.00178   0.00053
  12        4ZZ        -0.04774   0.00000   0.00000  -0.01682  -0.00054
  13        4XY         0.00000   0.00000   0.00000   0.00000   0.00000
  14        4XZ         0.00000  -0.01814   0.00000   0.00000   0.00000
  15        4YZ         0.00000   0.00000  -0.01814   0.00000   0.00000
  16 2   N  1S          0.05659   0.00000   0.00000   0.00962   0.00426
  17        2S         -0.15693   0.00000   0.00000  -0.02324  -0.00796
  18        2PX         0.00000   0.21130   0.00000   0.00000   0.00000
  19        2PY         0.00000   0.00000   0.21130   0.00000   0.00000
  20        2PZ         0.00502   0.00000   0.00000  -0.16528  -0.00924
  21        3S         -0.26816   0.00000   0.00000   0.05240  -0.00210
  22        3PX         0.00000   0.10834   0.00000   0.00000   0.00000
  23        3PY         0.00000   0.00000   0.10834   0.00000   0.00000
  24        3PZ        -0.05240   0.00000   0.00000  -0.06912  -0.00203
  25        4XX        -0.00210   0.00000   0.00000   0.00203   0.00038
  26        4YY        -0.00210   0.00000   0.00000   0.00203   0.00038
  27        4ZZ         0.02431   0.00000   0.00000  -0.00833  -0.00080
  28        4XY         0.00000   0.00000   0.00000   0.00000   0.00000
  29        4XZ         0.00000   0.01814   0.00000   0.00000   0.00000
  30        4YZ         0.00000   0.00000   0.01814   0.00000   0.00000
                          11        12        13        14        15
  11        4YY         0.00053
  12        4ZZ        -0.00054   0.00493
  13        4XY         0.00000   0.00000   0.00000
  14        4XZ         0.00000   0.00000   0.00000   0.00304
  15        4YZ         0.00000   0.00000   0.00000   0.00000   0.00304
  16 2   N  1S          0.00426  -0.01601   0.00000   0.00000   0.00000
  17        2S         -0.00796   0.03071   0.00000   0.00000   0.00000
  18        2PX         0.00000   0.00000   0.00000  -0.03538   0.00000
  19        2PY         0.00000   0.00000   0.00000   0.00000  -0.03538
  20        2PZ        -0.00924   0.02184   0.00000   0.00000   0.00000
  21        3S         -0.00210   0.02431   0.00000   0.00000   0.00000
  22        3PX         0.00000   0.00000   0.00000  -0.01814   0.00000
  23        3PY         0.00000   0.00000   0.00000   0.00000  -0.01814
  24        3PZ        -0.00203   0.00833   0.00000   0.00000   0.00000
  25        4XX         0.00038  -0.00080   0.00000   0.00000   0.00000
  26        4YY         0.00038  -0.00080   0.00000   0.00000   0.00000
  27        4ZZ        -0.00080   0.00035   0.00000   0.00000   0.00000
  28        4XY         0.00000   0.00000   0.00000   0.00000   0.00000
  29        4XZ         0.00000   0.00000   0.00000  -0.00304   0.00000
  30        4YZ         0.00000   0.00000   0.00000   0.00000  -0.00304
                          16        17        18        19        20
  16 2   N  1S          2.07631
  17        2S         -0.15369   0.47761
  18        2PX         0.00000   0.00000   0.41211
  19        2PY         0.00000   0.00000   0.00000   0.41211
  20        2PZ         0.05051  -0.08386   0.00000   0.00000   0.62109
  21        3S         -0.25353   0.55806   0.00000   0.00000  -0.45763
  22        3PX         0.00000   0.00000   0.21130   0.00000   0.00000
  23        3PY         0.00000   0.00000   0.00000   0.21130   0.00000
  24        3PZ         0.03349  -0.06122   0.00000   0.00000   0.22010
  25        4XX        -0.01207  -0.01008   0.00000   0.00000  -0.00830
  26        4YY        -0.01207  -0.01008   0.00000   0.00000  -0.00830
  27        4ZZ        -0.00701  -0.01453   0.00000   0.00000   0.05084
  28        4XY         0.00000   0.00000   0.00000   0.00000   0.00000
  29        4XZ         0.00000   0.00000   0.03538   0.00000   0.00000
  30        4YZ         0.00000   0.00000   0.00000   0.03538   0.00000
                          21        22        23        24        25
  21        3S          0.87877
  22        3PX         0.00000   0.10834
  23        3PY         0.00000   0.00000   0.10834
  24        3PZ        -0.18819   0.00000   0.00000   0.08521
  25        4XX        -0.00468   0.00000   0.00000  -0.00178   0.00053
  26        4YY        -0.00468   0.00000   0.00000  -0.00178   0.00053
  27        4ZZ        -0.04774   0.00000   0.00000   0.01682  -0.00054
  28        4XY         0.00000   0.00000   0.00000   0.00000   0.00000
  29        4XZ         0.00000   0.01814   0.00000   0.00000   0.00000
  30        4YZ         0.00000   0.00000   0.01814   0.00000   0.00000
                          26        27        28        29        30
  26        4YY         0.00053
  27        4ZZ        -0.00054   0.00493
  28        4XY         0.00000   0.00000   0.00000
  29        4XZ         0.00000   0.00000   0.00000   0.00304
  30        4YZ         0.00000   0.00000   0.00000   0.00000   0.00304
    Full Mulliken population analysis:
                           1         2         3         4         5
   1 1   N  1S          2.07631
   2        2S         -0.03415   0.47761
   3        2PX         0.00000   0.00000   0.41211
   4        2PY         0.00000   0.00000   0.00000   0.41211
   5        2PZ         0.00000   0.00000   0.00000   0.00000   0.62109
   6        3S         -0.04357   0.43278   0.00000   0.00000   0.00000
   7        3PX         0.00000   0.00000   0.10973   0.00000   0.00000
   8        3PY         0.00000   0.00000   0.00000   0.10973   0.00000
   9        3PZ         0.00000   0.00000   0.00000   0.00000   0.11430
  10        4XX        -0.00061  -0.00641   0.00000   0.00000   0.00000
  11        4YY        -0.00061  -0.00641   0.00000   0.00000   0.00000
  12        4ZZ        -0.00035  -0.00924   0.00000   0.00000   0.00000
  13        4XY         0.00000   0.00000   0.00000   0.00000   0.00000
  14        4XZ         0.00000   0.00000   0.00000   0.00000   0.00000
  15        4YZ         0.00000   0.00000   0.00000   0.00000   0.00000
  16 2   N  1S          0.00000  -0.00047   0.00000   0.00000  -0.00436
  17        2S         -0.00047   0.00672   0.00000   0.00000   0.06156
  18        2PX         0.00000   0.00000   0.05267   0.00000   0.00000
  19        2PY         0.00000   0.00000   0.00000   0.05267   0.00000
  20        2PZ        -0.00436   0.06156   0.00000   0.00000   0.14931
  21        3S          0.00402  -0.06025   0.00000   0.00000   0.00120
  22        3PX         0.00000   0.00000   0.05278   0.00000   0.00000
  23        3PY         0.00000   0.00000   0.00000   0.05278   0.00000
  24        3PZ        -0.00126   0.01315   0.00000   0.00000   0.01907
  25        4XX         0.00001  -0.00097   0.00000   0.00000  -0.00144
  26        4YY         0.00001  -0.00097   0.00000   0.00000  -0.00144
  27        4ZZ        -0.00196   0.01451   0.00000   0.00000   0.00958
  28        4XY         0.00000   0.00000   0.00000   0.00000   0.00000
  29        4XZ         0.00000   0.00000   0.01033   0.00000   0.00000
  30        4YZ         0.00000   0.00000   0.00000   0.01033   0.00000
                           6         7         8         9        10
   6        3S          0.87877
   7        3PX         0.00000   0.10834
   8        3PY         0.00000   0.00000   0.10834
   9        3PZ         0.00000   0.00000   0.00000   0.08521
  10        4XX        -0.00314   0.00000   0.00000   0.00000   0.00053
  11        4YY        -0.00314   0.00000   0.00000   0.00000   0.00018
  12        4ZZ        -0.03200   0.00000   0.00000   0.00000  -0.00018
  13        4XY         0.00000   0.00000   0.00000   0.00000   0.00000
  14        4XZ         0.00000   0.00000   0.00000   0.00000   0.00000
  15        4YZ         0.00000   0.00000   0.00000   0.00000   0.00000
  16 2   N  1S          0.00402   0.00000   0.00000  -0.00126   0.00001
  17        2S         -0.06025   0.00000   0.00000   0.01315  -0.00097
  18        2PX         0.00000   0.05278   0.00000   0.00000   0.00000
  19        2PY         0.00000   0.00000   0.05278   0.00000   0.00000
  20        2PZ         0.00120   0.00000   0.00000   0.01907  -0.00144
  21        3S         -0.16989   0.00000   0.00000  -0.03172  -0.00068
  22        3PX         0.00000   0.06864   0.00000   0.00000   0.00000
  23        3PY         0.00000   0.00000   0.06864   0.00000   0.00000
  24        3PZ        -0.03172   0.00000   0.00000  -0.00382  -0.00100
  25        4XX        -0.00068   0.00000   0.00000  -0.00100   0.00007
  26        4YY        -0.00068   0.00000   0.00000  -0.00100   0.00002
  27        4ZZ         0.01095   0.00000   0.00000   0.00349  -0.00021
  28        4XY         0.00000   0.00000   0.00000   0.00000   0.00000
  29        4XZ         0.00000   0.00410   0.00000   0.00000   0.00000
  30        4YZ         0.00000   0.00000   0.00410   0.00000   0.00000
                          11        12        13        14        15
  11        4YY         0.00053
  12        4ZZ        -0.00018   0.00493
  13        4XY         0.00000   0.00000   0.00000
  14        4XZ         0.00000   0.00000   0.00000   0.00304
  15        4YZ         0.00000   0.00000   0.00000   0.00000   0.00304
  16 2   N  1S          0.00001  -0.00196   0.00000   0.00000   0.00000
  17        2S         -0.00097   0.01451   0.00000   0.00000   0.00000
  18        2PX         0.00000   0.00000   0.00000   0.01033   0.00000
  19        2PY         0.00000   0.00000   0.00000   0.00000   0.01033
  20        2PZ        -0.00144   0.00958   0.00000   0.00000   0.00000
  21        3S         -0.00068   0.01095   0.00000   0.00000   0.00000
  22        3PX         0.00000   0.00000   0.00000   0.00410   0.00000
  23        3PY         0.00000   0.00000   0.00000   0.00000   0.00410
  24        3PZ        -0.00100   0.00349   0.00000   0.00000   0.00000
  25        4XX         0.00002  -0.00021   0.00000   0.00000   0.00000
  26        4YY         0.00007  -0.00021   0.00000   0.00000   0.00000
  27        4ZZ        -0.00021   0.00017   0.00000   0.00000   0.00000
  28        4XY         0.00000   0.00000   0.00000   0.00000   0.00000
  29        4XZ         0.00000   0.00000   0.00000   0.00133   0.00000
  30        4YZ         0.00000   0.00000   0.00000   0.00000   0.00133
                          16        17        18        19        20
  16 2   N  1S          2.07631
  17        2S         -0.03415   0.47761
  18        2PX         0.00000   0.00000   0.41211
  19        2PY         0.00000   0.00000   0.00000   0.41211
  20        2PZ         0.00000   0.00000   0.00000   0.00000   0.62109
  21        3S         -0.04357   0.43278   0.00000   0.00000   0.00000
  22        3PX         0.00000   0.00000   0.10973   0.00000   0.00000
  23        3PY         0.00000   0.00000   0.00000   0.10973   0.00000
  24        3PZ         0.00000   0.00000   0.00000   0.00000   0.11430
  25        4XX        -0.00061  -0.00641   0.00000   0.00000   0.00000
  26        4YY        -0.00061  -0.00641   0.00000   0.00000   0.00000
  27        4ZZ        -0.00035  -0.00924   0.00000   0.00000   0.00000
  28        4XY         0.00000   0.00000   0.00000   0.00000   0.00000
  29        4XZ         0.00000   0.00000   0.00000   0.00000   0.00000
  30        4YZ         0.00000   0.00000   0.00000   0.00000   0.00000
                          21        22        23        24        25
  21        3S          0.87877
  22        3PX         0.00000   0.10834
  23        3PY         0.00000   0.00000   0.10834
  24        3PZ         0.00000   0.00000   0.00000   0.08521
  25        4XX        -0.00314   0.00000   0.00000   0.00000   0.00053
  26        4YY        -0.00314   0.00000   0.00000   0.00000   0.00018
  27        4ZZ        -0.03200   0.00000   0.00000   0.00000  -0.00018
  28        4XY         0.00000   0.00000   0.00000   0.00000   0.00000
  29        4XZ         0.00000   0.00000   0.00000   0.00000   0.00000
  30        4YZ         0.00000   0.00000   0.00000   0.00000   0.00000
                          26        27        28        29        30
  26        4YY         0.00053
  27        4ZZ        -0.00018   0.00493
  28        4XY         0.00000   0.00000   0.00000
  29        4XZ         0.00000   0.00000   0.00000   0.00304
  30        4YZ         0.00000   0.00000   0.00000   0.00000   0.00304
     Gross orbital populations:
                           1
   1 1   N  1S          1.99300
   2        2S          0.88744
   3        2PX         0.63762
   4        2PY         0.63762
   5        2PZ         0.96886
   6        3S          0.98264
   7        3PX         0.34358
   8        3PY         0.34358
   9        3PZ         0.19643
  10        4XX        -0.01383
  11        4YY        -0.01383
  12        4ZZ        -0.00071
  13        4XY         0.00000
  14        4XZ         0.01880
  15        4YZ         0.01880
  16 2   N  1S          1.99300
  17        2S          0.88744
  18        2PX         0.63762
  19        2PY         0.63762
  20        2PZ         0.96886
  21        3S          0.98264
  22        3PX         0.34358
  23        3PY         0.34358
  24        3PZ         0.19643
  25        4XX        -0.01383
  26        4YY        -0.01383
  27        4ZZ        -0.00071
  28        4XY         0.00000
  29        4XZ         0.01880
  30        4YZ         0.01880
          Condensed to atoms (all electrons):
               1          2
     1  N    6.445373   0.554627
     2  N    0.554627   6.445373
 Mulliken charges:
               1
     1  N    0.000000
     2  N    0.000000
 Sum of Mulliken charges =   0.00000
 Mulliken charges with hydrogens summed into heavy atoms:
               1
     1  N    0.000000
     2  N    0.000000
 Atomic Valencies and Mayer Atomic Bond Orders:
               1          2
     1  N    2.744590   2.744590
     2  N    2.744590   2.744590
 Lowdin Atomic Charges:
               1
     1  N    0.000000
     2  N    0.000000
 Sum of Lowdin charges  =   0.00000
 Lowdin atomic charges with hydrogens summed into heavy atoms:
               1
     1  N    0.000000
     2  N    0.000000
 Sum of Lowdin charges  =   0.00000
 Dipole moment from Lowdin charges (Debye):
    X=     0.0000    Y=     0.0000    Z=     0.0000  Tot=     0.0000
 Electronic spatial extent (au):  <R**2>=             38.6019
 Charge=              0.0000 electrons
 Dipole moment (field-independent basis, Debye):
    X=              0.0000    Y=              0.0000    Z=              0.0000  Tot=              0.0000
 Quadrupole moment (field-independent basis, Debye-Ang):
   XX=            -10.0265   YY=            -10.0265   ZZ=            -11.6002
   XY=              0.0000   XZ=              0.0000   YZ=              0.0000
 Traceless Quadrupole moment (field-independent basis, Debye-Ang):
   XX=              0.5246   YY=              0.5246   ZZ=             -1.0492
   XY=              0.0000   XZ=              0.0000   YZ=              0.0000
 Octapole moment (field-independent basis, Debye-Ang**2):
  XXX=              0.0000  YYY=              0.0000  ZZZ=              0.0000  XYY=              0.0000
  XXY=              0.0000  XXZ=              0.0000  XZZ=              0.0000  YZZ=              0.0000
  YYZ=              0.0000  XYZ=              0.0000
 Hexadecapole moment (field-independent basis, Debye-Ang**3):
 XXXX=             -7.9713 YYYY=             -7.9713 ZZZZ=            -30.2821 XXXY=              0.0000
 XXXZ=              0.0000 YYYX=              0.0000 YYYZ=              0.0000 ZZZX=              0.0000
 ZZZY=              0.0000 XXYY=             -2.6571 XXZZ=             -6.0171 YYZZ=             -6.0171
 XXYZ=              0.0000 YYXZ=              0.0000 ZZXY=              0.0000
 N-N= 2.361537633963D+01 E-N=-3.029856398990D+02  KE= 1.085176573115D+02
 Symmetry AG   KE= 5.306146184887D+01
 Symmetry B1G  KE= 1.412853954164D-34
 Symmetry B2G  KE= 3.617778619713D-32
 Symmetry B3G  KE= 2.089302402541D-32
 Symmetry AU   KE= 4.622026735212D-34
 Symmetry B1U  KE= 4.865175282252D+01
 Symmetry B2U  KE= 3.402221320036D+00
 Symmetry B3U  KE= 3.402221320036D+00
 Orbital energies and kinetic energies (alpha):
                                 1                 2
   1 (SGG)--O                -14.445000         21.953346
   2 (SGU)--O                -14.443245         21.970948
   3 (SGG)--O                 -1.128305          2.558979
   4 (SGU)--O                 -0.551366          2.354928
   5 (PIU)--O                 -0.464753          1.701111
   6 (PIU)--O                 -0.464753          1.701111
   7 (SGG)--O                 -0.427147          2.018405
   8 (PIG)--V                 -0.020540          2.076239
   9 (PIG)--V                 -0.020540          2.076239
  10 (SGU)--V                  0.416934          1.594798
  11 (SGG)--V                  0.589154          1.498203
  12 (PIU)--V                  0.604453          2.331380
  13 (PIU)--V                  0.604453          2.331380
  14 (SGG)--V                  0.640333          2.070577
  15 (PIG)--V                  0.752459          2.686972
  16 (PIG)--V                  0.752459          2.686972
  17 (SGU)--V                  0.794759          3.553290
  18 (SGU)--V                  1.246609          2.914811
  19 (DLTG)--V                 1.447522          2.591143
  20 (DLTG)--V                 1.447523          2.591143
  21 (PIU)--V                  1.554667          3.007245
  22 (PIU)--V                  1.554667          3.007245
  23 (DLTU)--V                 1.943680          3.099736
  24 (DLTU)--V                 1.943681          3.099736
  25 (SGG)--V                  2.410540          4.099326
  26 (PIG)--V                  2.601244          3.939715
  27 (PIG)--V                  2.601244          3.939715
  28 (SGU)--V                  2.831847          5.946337
  29 (SGG)--V                  3.291024          8.475433
  30 (SGU)--V                  3.594298          9.646004
 Total kinetic energy from orbitals= 1.085176573115D+02
 No NMR shielding tensors so no spin-rotation constants.
 Leave Link  601 at Wed Mar 25 13:17:48 2026, MaxMem=    33554432 cpu:         0.1
 (Enter /opt/g09/g09/l701.exe)
 Compute integral first derivatives.
 ... and contract with generalized density number  0.
 Leave Link  701 at Wed Mar 25 13:17:48 2026, MaxMem=    33554432 cpu:         0.0
 (Enter /opt/g09/g09/l702.exe)
 L702 exits ... SP integral derivatives will be done elsewhere.
 Leave Link  702 at Wed Mar 25 13:17:48 2026, MaxMem=    33554432 cpu:         0.0
 (Enter /opt/g09/g09/l703.exe)
 Compute integral first derivatives, UseDBF=F ICtDFT=           0.
 Integral derivatives from FoFJK, PRISM(SPDF).
 Calling FoFJK, ICntrl=      2127 FMM=F ISym2X=1 I1Cent= 0 IOpClX= 0 NMat=1 NMatS=1 NMatT=0.
 FoFJK:  IHMeth= 1 ICntrl=    2127 DoSepK=F KAlg= 0 I1Cent=   0 FoldK=F
 IRaf=         0 NMat=   1 IRICut=       1 DoRegI=T DoRafI=F ISym2E= 1.
 FoFCou: FMM=F IPFlag=           0 FMFlag=      100000 FMFlg1=         800
         NFxFlg=           0 DoJE=F BraDBF=F KetDBF=F FulRan=T
         wScrn=  0.000000 ICntrl=    2127 IOpCl=  0 I1Cent=           0 NGrid=           0
         NMat0=    1 NMatS0=      1 NMatT0=    0 NMatD0=    1 NMtDS0=    0 NMtDT0=    0
 Petite list used in FoFCou.
 Leave Link  703 at Wed Mar 25 13:17:48 2026, MaxMem=    33554432 cpu:         0.0
 (Enter /opt/g09/g09/l716.exe)
 Dipole        =-7.88860905D-31 0.00000000D+00 0.00000000D+00
 ***** Axes restored to original set *****
 -------------------------------------------------------------------
 Center     Atomic                   Forces (Hartrees/Bohr)
 Number     Number              X              Y              Z
 -------------------------------------------------------------------
      1        7           0.000000000    0.000000000   -0.023302937
      2        7           0.000000000    0.000000000    0.023302937
 -------------------------------------------------------------------
 Cartesian Forces:  Max     0.023302937 RMS     0.013453957
 Leave Link  716 at Wed Mar 25 13:17:48 2026, MaxMem=    33554432 cpu:         0.0
 (Enter /opt/g09/g09/l103.exe)

 GradGradGradGradGradGradGradGradGradGradGradGradGradGradGradGradGradGrad
 Berny optimization.
 FormGI is forming the generalized inverse of G from B-inverse, IUseBI=4.
 Internal  Forces:  Max     0.023302937 RMS     0.023302937
 Search for a local minimum.
 Step number   1 out of a maximum of   20
 All quantities printed in internal units (Hartrees-Bohrs-Radians)
 RMS Force = .23303D-01 SwitMx=.10000D-02 MixMth= 1
 Mixed Optimization -- RFO/linear search
 Second derivative matrix not updated -- first step.
 The second derivative matrix:
                          R1
           R1           1.78752
 ITU=  0
     Eigenvalues ---    1.78752
 RFO step:  Lambda=-3.03737066D-04 EMin= 1.78751513D+00
 Linear search not attempted -- first point.
 Iteration  1 RMS(Cart)=  0.00921663 RMS(Int)=  0.00000000
 Iteration  2 RMS(Cart)=  0.00000000 RMS(Int)=  0.00000000
 ITry= 1 IFail=0 DXMaxC= 6.52D-03 DCOld= 1.00D+10 DXMaxT= 3.00D-01 DXLimC= 3.00D+00 Rises=F
 ClnCor:  largest displacement from symmetrization is 3.99D-19 for atom     1.
 Variable       Old X    -DE/DX   Delta X   Delta X   Delta X     New X
                                 (Linear)    (Quad)   (Total)
    R1        2.07492   0.02330   0.00000   0.01303   0.01303   2.08795
         Item               Value     Threshold  Converged?
 Maximum Force            0.023303     0.000450     NO 
 RMS     Force            0.023303     0.000300     NO 
 Maximum Displacement     0.006517     0.001800     NO 
 RMS     Displacement     0.009217     0.001200     NO 
 Predicted change in Energy=-1.518943D-04
 Lowest energy point so far.  Saving SCF results.
 GradGradGradGradGradGradGradGradGradGradGradGradGradGradGradGradGradGrad

 Leave Link  103 at Wed Mar 25 13:17:49 2026, MaxMem=    33554432 cpu:         0.0
 (Enter /opt/g09/g09/l202.exe)
                          Input orientation:                          
 ---------------------------------------------------------------------
 Center     Atomic      Atomic             Coordinates (Angstroms)
 Number     Number       Type             X           Y           Z
 ---------------------------------------------------------------------
      1          7           0        0.000000    0.000000   -0.003449
      2          7           0        0.000000    0.000000    1.101449
 ---------------------------------------------------------------------
 Stoichiometry    N2
 Framework group  D*H[C*(N.N)]
 Deg. of freedom     1
 Full point group                 D*H     NOp   8
 RotChk:  IX=0 Diff= 0.00D+00
 Largest Abelian subgroup         D2H     NOp   8
 Largest concise Abelian subgroup C2      NOp   2
                         Standard orientation:                         
 ---------------------------------------------------------------------
 Center     Atomic      Atomic             Coordinates (Angstroms)
 Number     Number       Type             X           Y           Z
 ---------------------------------------------------------------------
      1          7           0        0.000000    0.000000    0.552449
      2          7           0        0.000000    0.000000   -0.552449
 ---------------------------------------------------------------------
 Rotational constants (GHZ):      0.0000000     59.1261865     59.1261865
 Leave Link  202 at Wed Mar 25 13:17:49 2026, MaxMem=    33554432 cpu:         0.0
 (Enter /opt/g09/g09/l301.exe)
 Standard basis: 6-31G(d) (6D, 7F)
 Ernie: Thresh=  0.10000D-02 Tol=  0.10000D-05 Strict=F.
 There are     8 symmetry adapted cartesian basis functions of AG  symmetry.
 There are     1 symmetry adapted cartesian basis functions of B1G symmetry.
 There are     3 symmetry adapted cartesian basis functions of B2G symmetry.
 There are     3 symmetry adapted cartesian basis functions of B3G symmetry.
 There are     1 symmetry adapted cartesian basis functions of AU  symmetry.
 There are     8 symmetry adapted cartesian basis functions of B1U symmetry.
 There are     3 symmetry adapted cartesian basis functions of B2U symmetry.
 There are     3 symmetry adapted cartesian basis functions of B3U symmetry.
 There are     8 symmetry adapted basis functions of AG  symmetry.
 There are     1 symmetry adapted basis functions of B1G symmetry.
 There are     3 symmetry adapted basis functions of B2G symmetry.
 There are     3 symmetry adapted basis functions of B3G symmetry.
 There are     1 symmetry adapted basis functions of AU  symmetry.
 There are     8 symmetry adapted basis functions of B1U symmetry.
 There are     3 symmetry adapted basis functions of B2U symmetry.
 There are     3 symmetry adapted basis functions of B3U symmetry.
    30 basis functions,    56 primitive gaussians,    30 cartesian basis functions
     7 alpha electrons        7 beta electrons
       nuclear repulsion energy        23.4679547225 Hartrees.
 IExCor=  402 DFT=T Ex+Corr=B3LYP ExCW=0 ScaHFX=  0.200000
 ScaDFX=  0.800000  0.720000  1.000000  0.810000 ScalE2=  1.000000  1.000000
 IRadAn=      0 IRanWt=     -1 IRanGd=            0 ICorTp=0 IEmpDi=  4
 NAtoms=    2 NActive=    2 NUniq=    1 SFac= 4.00D+00 NAtFMM=   60 NAOKFM=F Big=F
 Integral buffers will be    131072 words long.
 Raffenetti 2 integral format.
 Two-electron integral symmetry is turned on.
 Leave Link  301 at Wed Mar 25 13:17:49 2026, MaxMem=    33554432 cpu:         0.0
 (Enter /opt/g09/g09/l302.exe)
 NPDir=0 NMtPBC=     1 NCelOv=     1 NCel=       1 NClECP=     1 NCelD=      1
         NCelK=      1 NCelE2=     1 NClLst=     1 CellRange=     0.0.
 One-electron integrals computed using PRISM.
 One-electron integral symmetry used in STVInt
 NBasis=    30 RedAO= T EigKep=  6.33D-03  NBF=     8     1     3     3     1     8     3     3
 NBsUse=    30 1.00D-06 EigRej= -1.00D+00 NBFU=     8     1     3     3     1     8     3     3
 Precomputing XC quadrature grid using
 IXCGrd= 4 IRadAn=           0 IRanWt=          -1 IRanGd=           0 AccXCQ= 0.00D+00.
 Generated NRdTot=       0 NPtTot=           0 NUsed=           0 NTot=          32
 NSgBfM=    30    30    30    30    30 MxSgAt=     2 MxSgA2=     2.
 Leave Link  302 at Wed Mar 25 13:17:49 2026, MaxMem=    33554432 cpu:         0.0
 (Enter /opt/g09/g09/l303.exe)
 DipDrv:  MaxL=1.
 Leave Link  303 at Wed Mar 25 13:17:49 2026, MaxMem=    33554432 cpu:         0.0
 (Enter /opt/g09/g09/l401.exe)
 Initial guess from the checkpoint file:  "n2_B3LYP.chk"
 B after Tr=     0.000000    0.000000    0.000000
         Rot=    1.000000    0.000000    0.000000    0.000000 Ang=   0.00 deg.
 Guess basis will be translated and rotated to current coordinates.
 JPrj=2 DoOrth=T DoCkMO=T.
 Initial guess orbital symmetries:
       Occupied  (SGG) (SGU) (SGG) (SGU) (PIU) (PIU) (SGG)
       Virtual   (SGG) (SGG) (SGG) (SGG) (DLTG) (DLTG) (PIG) (PIG)
                 (PIG) (PIG) (PIG) (PIG) (DLTU) (SGU) (SGU) (DLTU)
                 (SGU) (SGU) (SGU) (PIU) (PIU) (PIU) (PIU)
 The electronic state of the initial guess is 1-SGG.
 Leave Link  401 at Wed Mar 25 13:17:49 2026, MaxMem=    33554432 cpu:         0.0
 (Enter /opt/g09/g09/l502.exe)
 Closed shell SCF:
 Using DIIS extrapolation, IDIIS=  1040.
 Integral symmetry usage will be decided dynamically.
 Keep R1 ints in memory in symmetry-blocked form, NReq=992529.
 IVT=       21766 IEndB=       21766 NGot=    33554432 MDV=    33514620
 LenX=    33514620 LenY=    33513279
 Requested convergence on RMS density matrix=1.00D-08 within 128 cycles.
 Requested convergence on MAX density matrix=1.00D-06.
 Requested convergence on             energy=1.00D-06.
 No special actions if energy rises.
 FoFCou: FMM=F IPFlag=           0 FMFlag=           0 FMFlg1=           0
         NFxFlg=           0 DoJE=F BraDBF=F KetDBF=F FulRan=T
         wScrn=  0.000000 ICntrl=     600 IOpCl=  0 I1Cent=           0 NGrid=           0
         NMat0=    1 NMatS0=    465 NMatT0=    0 NMatD0=    1 NMtDS0=    0 NMtDT0=    0
 Petite list used in FoFCou.

 Cycle   1  Pass 1  IDiag  1:
 E= -109.524094466946    
 DIIS: error= 9.42D-04 at cycle   1 NSaved=   1.
 NSaved= 1 IEnMin= 1 EnMin= -109.524094466946     IErMin= 1 ErrMin= 9.42D-04
 ErrMax= 9.42D-04  0.00D+00 EMaxC= 1.00D-01 BMatC= 2.79D-05 BMatP= 2.79D-05
 IDIUse=3 WtCom= 9.91D-01 WtEn= 9.42D-03
 Coeff-Com:  0.100D+01
 Coeff-En:   0.100D+01
 Coeff:      0.100D+01
 Gap=     0.608 Goal=   None    Shift=    0.000
 RMSDP=2.18D-04 MaxDP=1.35D-03              OVMax= 1.44D-03

 Cycle   2  Pass 1  IDiag  1:
 E= -109.524123741487     Delta-E=       -0.000029274541 Rises=F Damp=F
 DIIS: error= 3.64D-04 at cycle   2 NSaved=   2.
 NSaved= 2 IEnMin= 2 EnMin= -109.524123741487     IErMin= 2 ErrMin= 3.64D-04
 ErrMax= 3.64D-04  0.00D+00 EMaxC= 1.00D-01 BMatC= 4.78D-06 BMatP= 2.79D-05
 IDIUse=3 WtCom= 9.96D-01 WtEn= 3.64D-03
 Coeff-Com:  0.242D+00 0.758D+00
 Coeff-En:   0.000D+00 0.100D+01
 Coeff:      0.241D+00 0.759D+00
 Gap=     0.403 Goal=   None    Shift=    0.000
 RMSDP=8.84D-05 MaxDP=6.16D-04 DE=-2.93D-05 OVMax= 6.46D-04

 Cycle   3  Pass 1  IDiag  1:
 E= -109.524127756987     Delta-E=       -0.000004015500 Rises=F Damp=F
 DIIS: error= 1.07D-04 at cycle   3 NSaved=   3.
 NSaved= 3 IEnMin= 3 EnMin= -109.524127756987     IErMin= 3 ErrMin= 1.07D-04
 ErrMax= 1.07D-04  0.00D+00 EMaxC= 1.00D-01 BMatC= 2.84D-07 BMatP= 4.78D-06
 IDIUse=3 WtCom= 9.99D-01 WtEn= 1.07D-03
 Coeff-Com: -0.162D-01 0.178D+00 0.838D+00
 Coeff-En:   0.000D+00 0.000D+00 0.100D+01
 Coeff:     -0.162D-01 0.178D+00 0.838D+00
 Gap=     0.403 Goal=   None    Shift=    0.000
 RMSDP=1.65D-05 MaxDP=9.90D-05 DE=-4.02D-06 OVMax= 1.56D-04

 Cycle   4  Pass 1  IDiag  1:
 E= -109.524128028827     Delta-E=       -0.000000271841 Rises=F Damp=F
 DIIS: error= 2.90D-06 at cycle   4 NSaved=   4.
 NSaved= 4 IEnMin= 4 EnMin= -109.524128028827     IErMin= 4 ErrMin= 2.90D-06
 ErrMax= 2.90D-06  0.00D+00 EMaxC= 1.00D-01 BMatC= 2.05D-10 BMatP= 2.84D-07
 IDIUse=1 WtCom= 1.00D+00 WtEn= 0.00D+00
 Coeff-Com: -0.157D-02 0.438D-02 0.454D-01 0.952D+00
 Coeff:     -0.157D-02 0.438D-02 0.454D-01 0.952D+00
 Gap=     0.403 Goal=   None    Shift=    0.000
 RMSDP=5.42D-07 MaxDP=4.80D-06 DE=-2.72D-07 OVMax= 4.52D-06

 Cycle   5  Pass 1  IDiag  1:
 E= -109.524128028998     Delta-E=       -0.000000000171 Rises=F Damp=F
 DIIS: error= 4.52D-07 at cycle   5 NSaved=   5.
 NSaved= 5 IEnMin= 5 EnMin= -109.524128028998     IErMin= 5 ErrMin= 4.52D-07
 ErrMax= 4.52D-07  0.00D+00 EMaxC= 1.00D-01 BMatC= 4.82D-12 BMatP= 2.05D-10
 IDIUse=1 WtCom= 1.00D+00 WtEn= 0.00D+00
 Coeff-Com: -0.407D-04-0.128D-02-0.148D-02 0.172D+00 0.831D+00
 Coeff:     -0.407D-04-0.128D-02-0.148D-02 0.172D+00 0.831D+00
 Gap=     0.403 Goal=   None    Shift=    0.000
 RMSDP=8.33D-08 MaxDP=1.18D-06 DE=-1.71D-10 OVMax= 5.71D-07

 Cycle   6  Pass 1  IDiag  1:
 E= -109.524128029002     Delta-E=       -0.000000000004 Rises=F Damp=F
 DIIS: error= 1.01D-08 at cycle   6 NSaved=   6.
 NSaved= 6 IEnMin= 6 EnMin= -109.524128029002     IErMin= 6 ErrMin= 1.01D-08
 ErrMax= 1.01D-08  0.00D+00 EMaxC= 1.00D-01 BMatC= 3.65D-15 BMatP= 4.82D-12
 IDIUse=1 WtCom= 1.00D+00 WtEn= 0.00D+00
 Coeff-Com:  0.330D-05 0.285D-04-0.194D-04-0.797D-02-0.987D-02 0.102D+01
 Coeff:      0.330D-05 0.285D-04-0.194D-04-0.797D-02-0.987D-02 0.102D+01
 Gap=     0.403 Goal=   None    Shift=    0.000
 RMSDP=2.44D-09 MaxDP=2.72D-08 DE=-3.75D-12 OVMax= 1.48D-08

 SCF Done:  E(RB3LYP) =  -109.524128029     A.U. after    6 cycles
            NFock=  6  Conv=0.24D-08     -V/T= 2.0096
 KE= 1.084775104490D+02 PE=-3.026625897362D+02 EE= 6.119299653577D+01
 Leave Link  502 at Wed Mar 25 13:17:49 2026, MaxMem=    33554432 cpu:         0.1
 (Enter /opt/g09/g09/l701.exe)
 Compute integral first derivatives.
 ... and contract with generalized density number  0.
 Leave Link  701 at Wed Mar 25 13:17:49 2026, MaxMem=    33554432 cpu:         0.0
 (Enter /opt/g09/g09/l702.exe)
 L702 exits ... SP integral derivatives will be done elsewhere.
 Leave Link  702 at Wed Mar 25 13:17:49 2026, MaxMem=    33554432 cpu:         0.0
 (Enter /opt/g09/g09/l703.exe)
 Compute integral first derivatives, UseDBF=F ICtDFT=           0.
 Integral derivatives from FoFJK, PRISM(SPDF).
 Calling FoFJK, ICntrl=      2127 FMM=F ISym2X=1 I1Cent= 0 IOpClX= 0 NMat=1 NMatS=1 NMatT=0.
 FoFJK:  IHMeth= 1 ICntrl=    2127 DoSepK=F KAlg= 0 I1Cent=   0 FoldK=F
 IRaf=         0 NMat=   1 IRICut=       1 DoRegI=T DoRafI=F ISym2E= 1.
 FoFCou: FMM=F IPFlag=           0 FMFlag=      100000 FMFlg1=         800
         NFxFlg=           0 DoJE=F BraDBF=F KetDBF=F FulRan=T
         wScrn=  0.000000 ICntrl=    2127 IOpCl=  0 I1Cent=           0 NGrid=           0
         NMat0=    1 NMatS0=      1 NMatT0=    0 NMatD0=    1 NMtDS0=    0 NMtDT0=    0
 Petite list used in FoFCou.
 Leave Link  703 at Wed Mar 25 13:17:49 2026, MaxMem=    33554432 cpu:         0.1
 (Enter /opt/g09/g09/l716.exe)
 Dipole        =-1.97215226D-31 1.92592994D-33 0.00000000D+00
 ***** Axes restored to original set *****
 -------------------------------------------------------------------
 Center     Atomic                   Forces (Hartrees/Bohr)
 Number     Number              X              Y              Z
 -------------------------------------------------------------------
      1        7           0.000000000    0.000000000   -0.001829574
      2        7           0.000000000    0.000000000    0.001829574
 -------------------------------------------------------------------
 Cartesian Forces:  Max     0.001829574 RMS     0.001056305
 Leave Link  716 at Wed Mar 25 13:17:49 2026, MaxMem=    33554432 cpu:         0.0
 (Enter /opt/g09/g09/l103.exe)

 GradGradGradGradGradGradGradGradGradGradGradGradGradGradGradGradGradGrad
 Berny optimization.
 Using GEDIIS/GDIIS optimizer.
 Red2BG is reusing G-inverse.
 Internal  Forces:  Max     0.001829574 RMS     0.001829574
 Search for a local minimum.
 Step number   2 out of a maximum of   20
 All quantities printed in internal units (Hartrees-Bohrs-Radians)
 RMS Force = .18296D-02 SwitMx=.10000D-02 MixMth= 1
 Mixed Optimization -- RFO/linear search
 Update second derivatives using D2CorX and points    1    2
 DE= -1.63D-04 DEPred=-1.52D-04 R= 1.07D+00
 TightC=F SS=  1.41D+00  RLast= 1.30D-02 DXNew= 5.0454D-01 3.9103D-02
 Trust test= 1.07D+00 RLast= 1.30D-02 DXMaxT set to 3.00D-01
 The second derivative matrix:
                          R1
           R1           1.64745
 ITU=  1  0
 Use linear search instead of GDIIS.
     Eigenvalues ---    1.64745
 RFO step:  Lambda= 0.00000000D+00 EMin= 1.64745258D+00
 Quartic linear search produced a step of  0.08753.
 Iteration  1 RMS(Cart)=  0.00080670 RMS(Int)=  0.00000000
 Iteration  2 RMS(Cart)=  0.00000000 RMS(Int)=  0.00000000
 ITry= 1 IFail=0 DXMaxC= 5.70D-04 DCOld= 1.00D+10 DXMaxT= 3.00D-01 DXLimC= 3.00D+00 Rises=F
 ClnCor:  largest displacement from symmetrization is 3.49D-20 for atom     2.
 Variable       Old X    -DE/DX   Delta X   Delta X   Delta X     New X
                                 (Linear)    (Quad)   (Total)
    R1        2.08795   0.00183   0.00114   0.00000   0.00114   2.08909
         Item               Value     Threshold  Converged?
 Maximum Force            0.001830     0.000450     NO 
 RMS     Force            0.001830     0.000300     NO 
 Maximum Displacement     0.000570     0.001800     YES
 RMS     Displacement     0.000807     0.001200     YES
 Predicted change in Energy=-1.015158D-06
 Lowest energy point so far.  Saving SCF results.
 GradGradGradGradGradGradGradGradGradGradGradGradGradGradGradGradGradGrad

 Leave Link  103 at Wed Mar 25 13:17:49 2026, MaxMem=    33554432 cpu:         0.0
 (Enter /opt/g09/g09/l202.exe)
                          Input orientation:                          
 ---------------------------------------------------------------------
 Center     Atomic      Atomic             Coordinates (Angstroms)
 Number     Number       Type             X           Y           Z
 ---------------------------------------------------------------------
      1          7           0        0.000000    0.000000   -0.003751
      2          7           0        0.000000    0.000000    1.101751
 ---------------------------------------------------------------------
 Stoichiometry    N2
 Framework group  D*H[C*(N.N)]
 Deg. of freedom     1
 Full point group                 D*H     NOp   8
 RotChk:  IX=0 Diff= 0.00D+00
 Largest Abelian subgroup         D2H     NOp   8
 Largest concise Abelian subgroup C2      NOp   2
                         Standard orientation:                         
 ---------------------------------------------------------------------
 Center     Atomic      Atomic             Coordinates (Angstroms)
 Number     Number       Type             X           Y           Z
 ---------------------------------------------------------------------
      1          7           0        0.000000    0.000000    0.552751
      2          7           0        0.000000    0.000000   -0.552751
 ---------------------------------------------------------------------
 Rotational constants (GHZ):      0.0000000     59.0616272     59.0616272
 Leave Link  202 at Wed Mar 25 13:17:49 2026, MaxMem=    33554432 cpu:         0.0
 (Enter /opt/g09/g09/l301.exe)
 Standard basis: 6-31G(d) (6D, 7F)
 Ernie: Thresh=  0.10000D-02 Tol=  0.10000D-05 Strict=F.
 There are     8 symmetry adapted cartesian basis functions of AG  symmetry.
 There are     1 symmetry adapted cartesian basis functions of B1G symmetry.
 There are     3 symmetry adapted cartesian basis functions of B2G symmetry.
 There are     3 symmetry adapted cartesian basis functions of B3G symmetry.
 There are     1 symmetry adapted cartesian basis functions of AU  symmetry.
 There are     8 symmetry adapted cartesian basis functions of B1U symmetry.
 There are     3 symmetry adapted cartesian basis functions of B2U symmetry.
 There are     3 symmetry adapted cartesian basis functions of B3U symmetry.
 There are     8 symmetry adapted basis functions of AG  symmetry.
 There are     1 symmetry adapted basis functions of B1G symmetry.
 There are     3 symmetry adapted basis functions of B2G symmetry.
 There are     3 symmetry adapted basis functions of B3G symmetry.
 There are     1 symmetry adapted basis functions of AU  symmetry.
 There are     8 symmetry adapted basis functions of B1U symmetry.
 There are     3 symmetry adapted basis functions of B2U symmetry.
 There are     3 symmetry adapted basis functions of B3U symmetry.
    30 basis functions,    56 primitive gaussians,    30 cartesian basis functions
     7 alpha electrons        7 beta electrons
       nuclear repulsion energy        23.4551390109 Hartrees.
 IExCor=  402 DFT=T Ex+Corr=B3LYP ExCW=0 ScaHFX=  0.200000
 ScaDFX=  0.800000  0.720000  1.000000  0.810000 ScalE2=  1.000000  1.000000
 IRadAn=      0 IRanWt=     -1 IRanGd=            0 ICorTp=0 IEmpDi=  4
 NAtoms=    2 NActive=    2 NUniq=    1 SFac= 4.00D+00 NAtFMM=   60 NAOKFM=F Big=F
 Integral buffers will be    131072 words long.
 Raffenetti 2 integral format.
 Two-electron integral symmetry is turned on.
 Leave Link  301 at Wed Mar 25 13:17:49 2026, MaxMem=    33554432 cpu:         0.0
 (Enter /opt/g09/g09/l302.exe)
 NPDir=0 NMtPBC=     1 NCelOv=     1 NCel=       1 NClECP=     1 NCelD=      1
         NCelK=      1 NCelE2=     1 NClLst=     1 CellRange=     0.0.
 One-electron integrals computed using PRISM.
 One-electron integral symmetry used in STVInt
 NBasis=    30 RedAO= T EigKep=  6.34D-03  NBF=     8     1     3     3     1     8     3     3
 NBsUse=    30 1.00D-06 EigRej= -1.00D+00 NBFU=     8     1     3     3     1     8     3     3
 Precomputing XC quadrature grid using
 IXCGrd= 4 IRadAn=           0 IRanWt=          -1 IRanGd=           0 AccXCQ= 0.00D+00.
 Generated NRdTot=       0 NPtTot=           0 NUsed=           0 NTot=          32
 NSgBfM=    30    30    30    30    30 MxSgAt=     2 MxSgA2=     2.
 Leave Link  302 at Wed Mar 25 13:17:49 2026, MaxMem=    33554432 cpu:         0.1
 (Enter /opt/g09/g09/l303.exe)
 DipDrv:  MaxL=1.
 Leave Link  303 at Wed Mar 25 13:17:49 2026, MaxMem=    33554432 cpu:         0.0
 (Enter /opt/g09/g09/l401.exe)
 Initial guess from the checkpoint file:  "n2_B3LYP.chk"
 B after Tr=     0.000000    0.000000    0.000000
         Rot=    1.000000    0.000000    0.000000    0.000000 Ang=   0.00 deg.
 Guess basis will be translated and rotated to current coordinates.
 JPrj=2 DoOrth=T DoCkMO=T.
 Initial guess orbital symmetries:
       Occupied  (SGG) (SGU) (SGG) (SGU) (PIU) (PIU) (SGG)
       Virtual   (SGG) (SGG) (SGG) (SGG) (DLTG) (DLTG) (PIG) (PIG)
                 (PIG) (PIG) (PIG) (PIG) (DLTU) (SGU) (SGU) (DLTU)
                 (SGU) (SGU) (SGU) (PIU) (PIU) (PIU) (PIU)
 The electronic state of the initial guess is 1-SGG.
 Leave Link  401 at Wed Mar 25 13:17:49 2026, MaxMem=    33554432 cpu:         0.0
 (Enter /opt/g09/g09/l502.exe)
 Closed shell SCF:
 Using DIIS extrapolation, IDIIS=  1040.
 Integral symmetry usage will be decided dynamically.
 Keep R1 ints in memory in symmetry-blocked form, NReq=992529.
 IVT=       21766 IEndB=       21766 NGot=    33554432 MDV=    33514620
 LenX=    33514620 LenY=    33513279
 Requested convergence on RMS density matrix=1.00D-08 within 128 cycles.
 Requested convergence on MAX density matrix=1.00D-06.
 Requested convergence on             energy=1.00D-06.
 No special actions if energy rises.
 FoFCou: FMM=F IPFlag=           0 FMFlag=           0 FMFlg1=           0
         NFxFlg=           0 DoJE=F BraDBF=F KetDBF=F FulRan=T
         wScrn=  0.000000 ICntrl=     600 IOpCl=  0 I1Cent=           0 NGrid=           0
         NMat0=    1 NMatS0=    465 NMatT0=    0 NMatD0=    1 NMtDS0=    0 NMtDT0=    0
 Petite list used in FoFCou.

 Cycle   1  Pass 1  IDiag  1:
 E= -109.524128816434    
 DIIS: error= 8.17D-05 at cycle   1 NSaved=   1.
 NSaved= 1 IEnMin= 1 EnMin= -109.524128816434     IErMin= 1 ErrMin= 8.17D-05
 ErrMax= 8.17D-05  0.00D+00 EMaxC= 1.00D-01 BMatC= 2.12D-07 BMatP= 2.12D-07
 IDIUse=1 WtCom= 1.00D+00 WtEn= 0.00D+00
 Coeff-Com:  0.100D+01
 Coeff:      0.100D+01
 Gap=     0.608 Goal=   None    Shift=    0.000
 RMSDP=1.90D-05 MaxDP=1.19D-04              OVMax= 1.27D-04

 Cycle   2  Pass 1  IDiag  1:
 E= -109.524129039470     Delta-E=       -0.000000223037 Rises=F Damp=F
 DIIS: error= 3.16D-05 at cycle   2 NSaved=   2.
 NSaved= 2 IEnMin= 2 EnMin= -109.524129039470     IErMin= 2 ErrMin= 3.16D-05
 ErrMax= 3.16D-05  0.00D+00 EMaxC= 1.00D-01 BMatC= 3.60D-08 BMatP= 2.12D-07
 IDIUse=1 WtCom= 1.00D+00 WtEn= 0.00D+00
[...]
  20        2PZ        -0.08568   0.20256   0.00000   0.00000  -0.43504
  21        3S          0.05657  -0.15707   0.00000   0.00000  -0.00389
  22        3PX         0.00000   0.00000   0.21248   0.00000   0.00000
  23        3PY         0.00000   0.00000   0.00000   0.21248   0.00000
  24        3PZ        -0.00917   0.02284   0.00000   0.00000  -0.16693
  25        4XX         0.00417  -0.00783   0.00000   0.00000   0.00904
  26        4YY         0.00417  -0.00783   0.00000   0.00000   0.00904
  27        4ZZ        -0.01590   0.03072   0.00000   0.00000  -0.02178
  28        4XY         0.00000   0.00000   0.00000   0.00000   0.00000
  29        4XZ         0.00000   0.00000   0.03518   0.00000   0.00000
  30        4YZ         0.00000   0.00000   0.00000   0.03518   0.00000
                           6         7         8         9        10
   6        3S          0.87709
   7        3PX         0.00000   0.10972
   8        3PY         0.00000   0.00000   0.10972
   9        3PZ         0.18690   0.00000   0.00000   0.08569
  10        4XX        -0.00486   0.00000   0.00000   0.00172   0.00052
  11        4YY        -0.00486   0.00000   0.00000   0.00172   0.00052
  12        4ZZ        -0.04749   0.00000   0.00000  -0.01677  -0.00052
  13        4XY         0.00000   0.00000   0.00000   0.00000   0.00000
  14        4XZ         0.00000  -0.01817   0.00000   0.00000   0.00000
  15        4YZ         0.00000   0.00000  -0.01817   0.00000   0.00000
  16 2   N  1S          0.05657   0.00000   0.00000   0.00917   0.00417
  17        2S         -0.15707   0.00000   0.00000  -0.02284  -0.00783
  18        2PX         0.00000   0.21248   0.00000   0.00000   0.00000
  19        2PY         0.00000   0.00000   0.21248   0.00000   0.00000
  20        2PZ         0.00389   0.00000   0.00000  -0.16693  -0.00904
  21        3S         -0.26731   0.00000   0.00000   0.05342  -0.00209
  22        3PX         0.00000   0.10972   0.00000   0.00000   0.00000
  23        3PY         0.00000   0.00000   0.10972   0.00000   0.00000
  24        3PZ        -0.05342   0.00000   0.00000  -0.07010  -0.00199
  25        4XX        -0.00209   0.00000   0.00000   0.00199   0.00037
  26        4YY        -0.00209   0.00000   0.00000   0.00199   0.00037
  27        4ZZ         0.02439   0.00000   0.00000  -0.00842  -0.00079
  28        4XY         0.00000   0.00000   0.00000   0.00000   0.00000
  29        4XZ         0.00000   0.01817   0.00000   0.00000   0.00000
  30        4YZ         0.00000   0.00000   0.01817   0.00000   0.00000
                          11        12        13        14        15
  11        4YY         0.00052
  12        4ZZ        -0.00052   0.00491
  13        4XY         0.00000   0.00000   0.00000
  14        4XZ         0.00000   0.00000   0.00000   0.00301
  15        4YZ         0.00000   0.00000   0.00000   0.00000   0.00301
  16 2   N  1S          0.00417  -0.01590   0.00000   0.00000   0.00000
  17        2S         -0.00783   0.03072   0.00000   0.00000   0.00000
  18        2PX         0.00000   0.00000   0.00000  -0.03518   0.00000
  19        2PY         0.00000   0.00000   0.00000   0.00000  -0.03518
  20        2PZ        -0.00904   0.02178   0.00000   0.00000   0.00000
  21        3S         -0.00209   0.02439   0.00000   0.00000   0.00000
  22        3PX         0.00000   0.00000   0.00000  -0.01817   0.00000
  23        3PY         0.00000   0.00000   0.00000   0.00000  -0.01817
  24        3PZ        -0.00199   0.00842   0.00000   0.00000   0.00000
  25        4XX         0.00037  -0.00079   0.00000   0.00000   0.00000
  26        4YY         0.00037  -0.00079   0.00000   0.00000   0.00000
  27        4ZZ        -0.00079   0.00034   0.00000   0.00000   0.00000
  28        4XY         0.00000   0.00000   0.00000   0.00000   0.00000
  29        4XZ         0.00000   0.00000   0.00000  -0.00301   0.00000
  30        4YZ         0.00000   0.00000   0.00000   0.00000  -0.00301
                          16        17        18        19        20
  16 2   N  1S          2.07616
  17        2S         -0.15415   0.47981
  18        2PX         0.00000   0.00000   0.41149
  19        2PY         0.00000   0.00000   0.00000   0.41149
  20        2PZ         0.05092  -0.08420   0.00000   0.00000   0.61855
  21        3S         -0.25414   0.56010   0.00000   0.00000  -0.45428
  22        3PX         0.00000   0.00000   0.21248   0.00000   0.00000
  23        3PY         0.00000   0.00000   0.00000   0.21248   0.00000
  24        3PZ         0.03323  -0.06062   0.00000   0.00000   0.22041
  25        4XX        -0.01204  -0.01007   0.00000   0.00000  -0.00803
  26        4YY        -0.01204  -0.01007   0.00000   0.00000  -0.00803
  27        4ZZ        -0.00698  -0.01465   0.00000   0.00000   0.05050
  28        4XY         0.00000   0.00000   0.00000   0.00000   0.00000
  29        4XZ         0.00000   0.00000   0.03518   0.00000   0.00000
  30        4YZ         0.00000   0.00000   0.00000   0.03518   0.00000
                          21        22        23        24        25
  21        3S          0.87709
  22        3PX         0.00000   0.10972
  23        3PY         0.00000   0.00000   0.10972
  24        3PZ        -0.18690   0.00000   0.00000   0.08569
  25        4XX        -0.00486   0.00000   0.00000  -0.00172   0.00052
  26        4YY        -0.00486   0.00000   0.00000  -0.00172   0.00052
  27        4ZZ        -0.04749   0.00000   0.00000   0.01677  -0.00052
  28        4XY         0.00000   0.00000   0.00000   0.00000   0.00000
  29        4XZ         0.00000   0.01817   0.00000   0.00000   0.00000
  30        4YZ         0.00000   0.00000   0.01817   0.00000   0.00000
                          26        27        28        29        30
  26        4YY         0.00052
  27        4ZZ        -0.00052   0.00491
  28        4XY         0.00000   0.00000   0.00000
  29        4XZ         0.00000   0.00000   0.00000   0.00301
  30        4YZ         0.00000   0.00000   0.00000   0.00000   0.00301
    Full Mulliken population analysis:
                           1         2         3         4         5
   1 1   N  1S          2.07616
   2        2S         -0.03425   0.47981
   3        2PX         0.00000   0.00000   0.41149
   4        2PY         0.00000   0.00000   0.00000   0.41149
   5        2PZ         0.00000   0.00000   0.00000   0.00000   0.61855
   6        3S         -0.04368   0.43436   0.00000   0.00000   0.00000
   7        3PX         0.00000   0.00000   0.11034   0.00000   0.00000
   8        3PY         0.00000   0.00000   0.00000   0.11034   0.00000
   9        3PZ         0.00000   0.00000   0.00000   0.00000   0.11446
  10        4XX        -0.00061  -0.00641   0.00000   0.00000   0.00000
  11        4YY        -0.00061  -0.00641   0.00000   0.00000   0.00000
  12        4ZZ        -0.00035  -0.00932   0.00000   0.00000   0.00000
  13        4XY         0.00000   0.00000   0.00000   0.00000   0.00000
  14        4XZ         0.00000   0.00000   0.00000   0.00000   0.00000
  15        4YZ         0.00000   0.00000   0.00000   0.00000   0.00000
  16 2   N  1S          0.00000  -0.00043   0.00000   0.00000  -0.00414
  17        2S         -0.00043   0.00625   0.00000   0.00000   0.06009
  18        2PX         0.00000   0.00000   0.05128   0.00000   0.00000
  19        2PY         0.00000   0.00000   0.00000   0.05128   0.00000
  20        2PZ        -0.00414   0.06009   0.00000   0.00000   0.14829
  21        3S          0.00397  -0.05973   0.00000   0.00000   0.00093
  22        3PX         0.00000   0.00000   0.05254   0.00000   0.00000
  23        3PY         0.00000   0.00000   0.00000   0.05254   0.00000
  24        3PZ        -0.00120   0.01289   0.00000   0.00000   0.01989
  25        4XX         0.00001  -0.00093   0.00000   0.00000  -0.00139
  26        4YY         0.00001  -0.00093   0.00000   0.00000  -0.00139
  27        4ZZ        -0.00189   0.01435   0.00000   0.00000   0.00956
  28        4XY         0.00000   0.00000   0.00000   0.00000   0.00000
  29        4XZ         0.00000   0.00000   0.01009   0.00000   0.00000
  30        4YZ         0.00000   0.00000   0.00000   0.01009   0.00000
                           6         7         8         9        10
   6        3S          0.87709
   7        3PX         0.00000   0.10972
   8        3PY         0.00000   0.00000   0.10972
   9        3PZ         0.00000   0.00000   0.00000   0.08569
  10        4XX        -0.00326   0.00000   0.00000   0.00000   0.00052
  11        4YY        -0.00326   0.00000   0.00000   0.00000   0.00017
  12        4ZZ        -0.03183   0.00000   0.00000   0.00000  -0.00017
  13        4XY         0.00000   0.00000   0.00000   0.00000   0.00000
  14        4XZ         0.00000   0.00000   0.00000   0.00000   0.00000
  15        4YZ         0.00000   0.00000   0.00000   0.00000   0.00000
  16 2   N  1S          0.00397   0.00000   0.00000  -0.00120   0.00001
  17        2S         -0.05973   0.00000   0.00000   0.01289  -0.00093
  18        2PX         0.00000   0.05254   0.00000   0.00000   0.00000
  19        2PY         0.00000   0.00000   0.05254   0.00000   0.00000
  20        2PZ         0.00093   0.00000   0.00000   0.01989  -0.00139
  21        3S         -0.16829   0.00000   0.00000  -0.03235  -0.00067
  22        3PX         0.00000   0.06908   0.00000   0.00000   0.00000
  23        3PY         0.00000   0.00000   0.06908   0.00000   0.00000
  24        3PZ        -0.03235   0.00000   0.00000  -0.00329  -0.00098
  25        4XX        -0.00067   0.00000   0.00000  -0.00098   0.00006
  26        4YY        -0.00067   0.00000   0.00000  -0.00098   0.00002
  27        4ZZ         0.01092   0.00000   0.00000   0.00354  -0.00021
  28        4XY         0.00000   0.00000   0.00000   0.00000   0.00000
  29        4XZ         0.00000   0.00409   0.00000   0.00000   0.00000
  30        4YZ         0.00000   0.00000   0.00409   0.00000   0.00000
                          11        12        13        14        15
  11        4YY         0.00052
  12        4ZZ        -0.00017   0.00491
  13        4XY         0.00000   0.00000   0.00000
  14        4XZ         0.00000   0.00000   0.00000   0.00301
  15        4YZ         0.00000   0.00000   0.00000   0.00000   0.00301
  16 2   N  1S          0.00001  -0.00189   0.00000   0.00000   0.00000
  17        2S         -0.00093   0.01435   0.00000   0.00000   0.00000
  18        2PX         0.00000   0.00000   0.00000   0.01009   0.00000
  19        2PY         0.00000   0.00000   0.00000   0.00000   0.01009
  20        2PZ        -0.00139   0.00956   0.00000   0.00000   0.00000
  21        3S         -0.00067   0.01092   0.00000   0.00000   0.00000
  22        3PX         0.00000   0.00000   0.00000   0.00409   0.00000
  23        3PY         0.00000   0.00000   0.00000   0.00000   0.00409
  24        3PZ        -0.00098   0.00354   0.00000   0.00000   0.00000
  25        4XX         0.00002  -0.00021   0.00000   0.00000   0.00000
  26        4YY         0.00006  -0.00021   0.00000   0.00000   0.00000
  27        4ZZ        -0.00021   0.00016   0.00000   0.00000   0.00000
  28        4XY         0.00000   0.00000   0.00000   0.00000   0.00000
  29        4XZ         0.00000   0.00000   0.00000   0.00131   0.00000
  30        4YZ         0.00000   0.00000   0.00000   0.00000   0.00131
                          16        17        18        19        20
  16 2   N  1S          2.07616
  17        2S         -0.03425   0.47981
  18        2PX         0.00000   0.00000   0.41149
  19        2PY         0.00000   0.00000   0.00000   0.41149
  20        2PZ         0.00000   0.00000   0.00000   0.00000   0.61855
  21        3S         -0.04368   0.43436   0.00000   0.00000   0.00000
  22        3PX         0.00000   0.00000   0.11034   0.00000   0.00000
  23        3PY         0.00000   0.00000   0.00000   0.11034   0.00000
  24        3PZ         0.00000   0.00000   0.00000   0.00000   0.11446
  25        4XX        -0.00061  -0.00641   0.00000   0.00000   0.00000
  26        4YY        -0.00061  -0.00641   0.00000   0.00000   0.00000
  27        4ZZ        -0.00035  -0.00932   0.00000   0.00000   0.00000
  28        4XY         0.00000   0.00000   0.00000   0.00000   0.00000
  29        4XZ         0.00000   0.00000   0.00000   0.00000   0.00000
  30        4YZ         0.00000   0.00000   0.00000   0.00000   0.00000
                          21        22        23        24        25
  21        3S          0.87709
  22        3PX         0.00000   0.10972
  23        3PY         0.00000   0.00000   0.10972
  24        3PZ         0.00000   0.00000   0.00000   0.08569
  25        4XX        -0.00326   0.00000   0.00000   0.00000   0.00052
  26        4YY        -0.00326   0.00000   0.00000   0.00000   0.00017
  27        4ZZ        -0.03183   0.00000   0.00000   0.00000  -0.00017
  28        4XY         0.00000   0.00000   0.00000   0.00000   0.00000
  29        4XZ         0.00000   0.00000   0.00000   0.00000   0.00000
  30        4YZ         0.00000   0.00000   0.00000   0.00000   0.00000
                          26        27        28        29        30
  26        4YY         0.00052
  27        4ZZ        -0.00017   0.00491
  28        4XY         0.00000   0.00000   0.00000
  29        4XZ         0.00000   0.00000   0.00000   0.00301
  30        4YZ         0.00000   0.00000   0.00000   0.00000   0.00301
     Gross orbital populations:
                           1
   1 1   N  1S          1.99299
   2        2S          0.88935
   3        2PX         0.63574
   4        2PY         0.63574
   5        2PZ         0.96486
   6        3S          0.98351
   7        3PX         0.34577
   8        3PY         0.34577
   9        3PZ         0.19767
  10        4XX        -0.01383
  11        4YY        -0.01383
  12        4ZZ        -0.00072
  13        4XY         0.00000
  14        4XZ         0.01850
  15        4YZ         0.01850
  16 2   N  1S          1.99299
  17        2S          0.88935
  18        2PX         0.63574
  19        2PY         0.63574
  20        2PZ         0.96486
  21        3S          0.98351
  22        3PX         0.34577
  23        3PY         0.34577
  24        3PZ         0.19767
  25        4XX        -0.01383
  26        4YY        -0.01383
  27        4ZZ        -0.00072
  28        4XY         0.00000
  29        4XZ         0.01850
  30        4YZ         0.01850
          Condensed to atoms (all electrons):
               1          2
     1  N    6.450367   0.549633
     2  N    0.549633   6.450367
 Mulliken charges:
               1
     1  N    0.000000
     2  N    0.000000
 Sum of Mulliken charges =   0.00000
 Mulliken charges with hydrogens summed into heavy atoms:
               1
     1  N    0.000000
     2  N    0.000000
 Atomic Valencies and Mayer Atomic Bond Orders:
               1          2
     1  N    2.746272   2.746272
     2  N    2.746272   2.746272
 Lowdin Atomic Charges:
               1
     1  N    0.000000
     2  N    0.000000
 Sum of Lowdin charges  =   0.00000
 Lowdin atomic charges with hydrogens summed into heavy atoms:
               1
     1  N    0.000000
     2  N    0.000000
 Sum of Lowdin charges  =   0.00000
 Dipole moment from Lowdin charges (Debye):
    X=     0.0000    Y=     0.0000    Z=     0.0000  Tot=     0.0000
 Electronic spatial extent (au):  <R**2>=             38.8469
 Charge=              0.0000 electrons
 Dipole moment (field-independent basis, Debye):
    X=              0.0000    Y=              0.0000    Z=              0.0000  Tot=              0.0000
 Quadrupole moment (field-independent basis, Debye-Ang):
   XX=            -10.0489   YY=            -10.0489   ZZ=            -11.6070
   XY=              0.0000   XZ=              0.0000   YZ=              0.0000
 Traceless Quadrupole moment (field-independent basis, Debye-Ang):
   XX=              0.5194   YY=              0.5194   ZZ=             -1.0387
   XY=              0.0000   XZ=              0.0000   YZ=              0.0000
 Octapole moment (field-independent basis, Debye-Ang**2):
  XXX=              0.0000  YYY=              0.0000  ZZZ=              0.0000  XYY=              0.0000
  XXY=              0.0000  XXZ=              0.0000  XZZ=              0.0000  YZZ=              0.0000
  YYZ=              0.0000  XYZ=              0.0000
 Hexadecapole moment (field-independent basis, Debye-Ang**3):
 XXXX=             -8.0062 YYYY=             -8.0062 ZZZZ=            -30.5672 XXXY=              0.0000
 XXXZ=              0.0000 YYYX=              0.0000 YYYZ=              0.0000 ZZZX=              0.0000
 ZZZY=              0.0000 XXYY=             -2.6687 XXZZ=             -6.0687 YYZZ=             -6.0687
 XXYZ=              0.0000 YYXZ=              0.0000 ZZXY=              0.0000
 N-N= 2.345513901092D+01 E-N=-3.026345144823D+02  KE= 1.084740537182D+02
 Symmetry AG   KE= 5.302686160675D+01
 Symmetry B1G  KE= 1.382914911671D-34
 Symmetry B2G  KE= 1.700583450630D-32
 Symmetry B3G  KE= 3.153338677839D-32
 Symmetry AU   KE= 4.501329246992D-34
 Symmetry B1U  KE= 4.865763873039D+01
 Symmetry B2U  KE= 3.394776690540D+00
 Symmetry B3U  KE= 3.394776690540D+00
 Orbital energies and kinetic energies (alpha):
                                 1                 2
   1 (SGG)--O                -14.446765         21.954601
   2 (SGU)--O                -14.445118         21.970867
   3 (SGG)--O                 -1.123833          2.539914
   4 (SGU)--O                 -0.553423          2.357952
   5 (PIU)--O                 -0.462399          1.697388
   6 (PIU)--O                 -0.462399          1.697388
   7 (SGG)--O                 -0.426875          2.018916
   8 (PIG)--V                 -0.024121          2.078649
   9 (PIG)--V                 -0.024121          2.078649
  10 (SGU)--V                  0.413659          1.621594
  11 (SGG)--V                  0.591051          1.502009
  12 (PIU)--V                  0.605902          2.341449
  13 (PIU)--V                  0.605902          2.341449
  14 (SGG)--V                  0.640052          2.074477
  15 (PIG)--V                  0.751158          2.680767
  16 (PIG)--V                  0.751158          2.680767
  17 (SGU)--V                  0.785202          3.559784
  18 (SGU)--V                  1.238912          2.872846
  19 (DLTG)--V                 1.449912          2.592486
  20 (DLTG)--V                 1.449912          2.592486
  21 (PIU)--V                  1.547999          2.994391
  22 (PIU)--V                  1.547999          2.994391
  23 (DLTU)--V                 1.939012          3.095256
  24 (DLTU)--V                 1.939012          3.095256
  25 (SGG)--V                  2.404335          4.078026
  26 (PIG)--V                  2.593694          3.925276
  27 (PIG)--V                  2.593694          3.925276
  28 (SGU)--V                  2.816728          5.872771
  29 (SGG)--V                  3.289401          8.512734
  30 (SGU)--V                  3.588180          9.618842
 Total kinetic energy from orbitals= 1.084740537182D+02
 No NMR shielding tensors so no spin-rotation constants.
 Leave Link  601 at Wed Mar 25 13:17:49 2026, MaxMem=    33554432 cpu:         0.0
 (Enter /opt/g09/g09/l9999.exe)

 Test job not archived.
 1\1\GINC-KADET27\FOpt\RB3LYP\6-31G(d)\N2\MDOROHUN\25-Mar-2026\0\\#P B3
 LYP/6-31G(d) Opt GFInput Pop=Full IOP(6/80=1)\\optymalizacja geometrii
  n2 metoda B3LYP\\0,1\N,0.,0.,-0.0037505765\N,0.,0.,1.1017505765\\Vers
 ion=ES64L-G09RevD.01\State=1-SGG\HF=-109.5241291\RMSD=7.184e-09\RMSF=8
 .478e-08\Dipole=0.,0.,0.\Quadrupole=0.38614,0.38614,-0.7722801,0.,0.,0
 .\PG=D*H [C*(N1.N1)]\\@


 PICNIC:  A SNACK IN THE GRASS.
 Job cpu time:       0 days  0 hours  0 minutes  1.1 seconds.
 File lengths (MBytes):  RWF=      5 Int=      0 D2E=      0 Chk=      2 Scr=      1
 Normal termination of Gaussian 09 at Wed Mar 25 13:17:49 2026.
