 Entering Gaussian System, Link 0=/opt/g09/g09/g09
 Input=n2p_sgm_B3LYP.inp
 Output=n2p_sgm_B3LYP.log
 Initial command:
 /opt/g09/g09/l1.exe "/tmp/Gau-12299.inp" -scrdir="/tmp/"
 Entering Link 1 = /opt/g09/g09/l1.exe PID=     12301.
  
 Copyright (c) 1988,1990,1992,1993,1995,1998,2003,2009,2013,
            Gaussian, Inc.  All Rights Reserved.
  
 This is part of the Gaussian(R) 09 program.  It is based on
 the Gaussian(R) 03 system (copyright 2003, Gaussian, Inc.),
 the Gaussian(R) 98 system (copyright 1998, Gaussian, Inc.),
 the Gaussian(R) 94 system (copyright 1995, Gaussian, Inc.),
 the Gaussian 92(TM) system (copyright 1992, Gaussian, Inc.),
 the Gaussian 90(TM) system (copyright 1990, Gaussian, Inc.),
 the Gaussian 88(TM) system (copyright 1988, Gaussian, Inc.),
 the Gaussian 86(TM) system (copyright 1986, Carnegie Mellon
 University), and the Gaussian 82(TM) system (copyright 1983,
 Carnegie Mellon University). Gaussian is a federally registered
 trademark of Gaussian, Inc.
  
 This software contains proprietary and confidential information,
 including trade secrets, belonging to Gaussian, Inc.
  
 This software is provided under written license and may be
 used, copied, transmitted, or stored only in accord with that
 written license.
  
 The following legend is applicable only to US Government
 contracts under FAR:
  
                    RESTRICTED RIGHTS LEGEND
  
 Use, reproduction and disclosure by the US Government is
 subject to restrictions as set forth in subparagraphs (a)
 and (c) of the Commercial Computer Software - Restricted
 Rights clause in FAR 52.227-19.
  
 Gaussian, Inc.
 340 Quinnipiac St., Bldg. 40, Wallingford CT 06492
  
  
 ---------------------------------------------------------------
 Warning -- This program may not be used in any manner that
 competes with the business of Gaussian, Inc. or will provide
 assistance to any competitor of Gaussian, Inc.  The licensee
 of this program is prohibited from giving any competitor of
 Gaussian, Inc. access to this program.  By using this program,
 the user acknowledges that Gaussian, Inc. is engaged in the
 business of creating and licensing software in the field of
 computational chemistry and represents and warrants to the
 licensee that it is not a competitor of Gaussian, Inc. and that
 it will not use this program in any manner prohibited above.
 ---------------------------------------------------------------
  

 Cite this work as:
 Gaussian 09, Revision D.01,
 M. J. Frisch, G. W. Trucks, H. B. Schlegel, G. E. Scuseria, 
 M. A. Robb, J. R. Cheeseman, G. Scalmani, V. Barone, B. Mennucci, 
 G. A. Petersson, H. Nakatsuji, M. Caricato, X. Li, H. P. Hratchian, 
 A. F. Izmaylov, J. Bloino, G. Zheng, J. L. Sonnenberg, M. Hada, 
 M. Ehara, K. Toyota, R. Fukuda, J. Hasegawa, M. Ishida, T. Nakajima, 
 Y. Honda, O. Kitao, H. Nakai, T. Vreven, J. A. Montgomery, Jr., 
 J. E. Peralta, F. Ogliaro, M. Bearpark, J. J. Heyd, E. Brothers, 
 K. N. Kudin, V. N. Staroverov, T. Keith, R. Kobayashi, J. Normand, 
 K. Raghavachari, A. Rendell, J. C. Burant, S. S. Iyengar, J. Tomasi, 
 M. Cossi, N. Rega, J. M. Millam, M. Klene, J. E. Knox, J. B. Cross, 
 V. Bakken, C. Adamo, J. Jaramillo, R. Gomperts, R. E. Stratmann, 
 O. Yazyev, A. J. Austin, R. Cammi, C. Pomelli, J. W. Ochterski, 
 R. L. Martin, K. Morokuma, V. G. Zakrzewski, G. A. Voth, 
 P. Salvador, J. J. Dannenberg, S. Dapprich, A. D. Daniels, 
 O. Farkas, J. B. Foresman, J. V. Ortiz, J. Cioslowski, 
 and D. J. Fox, Gaussian, Inc., Wallingford CT, 2013.
 
 ******************************************
 Gaussian 09:  ES64L-G09RevD.01 24-Apr-2013
                25-Mar-2026 
 ******************************************
 %oldchk=n2_B3LYP.chk
 %chk=n2p_sgm_B3LYP.chk
 Copying data from "n2_B3LYP.chk" to current chk file "n2p_sgm_B3LYP.chk".
 -----------------------------------------------------------------
 #P B3LYP/6-31G(d) guess=(read,alter) GFInput Pop=Full IOP(6/80=1)
 -----------------------------------------------------------------
 1/38=1/1;
 2/12=2,17=6,18=5,40=1/2;
 3/5=1,6=6,7=1,11=2,16=1,24=10,25=1,30=1,74=-5,116=-2/1,2,3;
 4/5=1,8=1/1;
 5/5=2,38=6/2;
 6/7=3,28=1,80=1/1;
 99/5=1,9=1/99;
 Leave Link    1 at Wed Mar 25 13:18:33 2026, MaxMem=    33554432 cpu:         0.0
 (Enter /opt/g09/g09/l101.exe)
 ------------------------------------
 n2 energia jonu w stanie Sigma B3LYP
 ------------------------------------
 Symbolic Z-matrix:
 Charge =  1 Multiplicity = 2
 N
 N                    1     1.1055 
 
 NAtoms=      2 NQM=        2 NQMF=       0 NMMI=      0 NMMIF=      0
                NMic=       0 NMicF=      0.
                    Isotopes and Nuclear Properties:
 (Nuclear quadrupole moments (NQMom) in fm**2, nuclear magnetic moments (NMagM)
  in nuclear magnetons)

  Atom         1           2
 IAtWgt=          14          14
 AtmWgt=  14.0030740  14.0030740
 NucSpn=           2           2
 AtZEff=   0.0000000   0.0000000
 NQMom=    2.0440000   2.0440000
 NMagM=    0.4037610   0.4037610
 AtZNuc=   7.0000000   7.0000000
 Leave Link  101 at Wed Mar 25 13:18:33 2026, MaxMem=    33554432 cpu:         0.1
 (Enter /opt/g09/g09/l202.exe)
                          Input orientation:                          
 ---------------------------------------------------------------------
 Center     Atomic      Atomic             Coordinates (Angstroms)
 Number     Number       Type             X           Y           Z
 ---------------------------------------------------------------------
      1          7           0        0.000000    0.000000    0.000000
      2          7           0        0.000000    0.000000    1.105500
 ---------------------------------------------------------------------
 Stoichiometry    N2(1+,2)
 Framework group  D*H[C*(N.N)]
 Deg. of freedom     1
 Full point group                 D*H     NOp   8
 Largest Abelian subgroup         D2H     NOp   8
 Largest concise Abelian subgroup C2      NOp   2
                         Standard orientation:                         
 ---------------------------------------------------------------------
 Center     Atomic      Atomic             Coordinates (Angstroms)
 Number     Number       Type             X           Y           Z
 ---------------------------------------------------------------------
      1          7           0        0.000000    0.000000    0.552750
      2          7           0        0.000000    0.000000   -0.552750
 ---------------------------------------------------------------------
 Rotational constants (GHZ):      0.0000000     59.0617504     59.0617504
 Leave Link  202 at Wed Mar 25 13:18:34 2026, MaxMem=    33554432 cpu:         0.0
 (Enter /opt/g09/g09/l301.exe)
 Standard basis: 6-31G(d) (6D, 7F)
 Ernie: Thresh=  0.10000D-02 Tol=  0.10000D-05 Strict=F.
 AO basis set in the form of general basis input (Overlap normalization):
      1 0
 S   6 1.00       0.000000000000
      0.4173511460D+04  0.1834772160D-02
      0.6274579110D+03  0.1399462700D-01
      0.1429020930D+03  0.6858655181D-01
      0.4023432930D+02  0.2322408730D+00
      0.1282021290D+02  0.4690699481D+00
      0.4390437010D+01  0.3604551991D+00
 SP   3 1.00       0.000000000000
      0.1162636186D+02 -0.1149611817D+00  0.6757974388D-01
      0.2716279807D+01 -0.1691174786D+00  0.3239072959D+00
      0.7722183966D+00  0.1145851947D+01  0.7408951398D+00
 SP   1 1.00       0.000000000000
      0.2120314975D+00  0.1000000000D+01  0.1000000000D+01
 D   1 1.00       0.000000000000
      0.8000000000D+00  0.1000000000D+01
 ****
      2 0
 S   6 1.00       0.000000000000
      0.4173511460D+04  0.1834772160D-02
      0.6274579110D+03  0.1399462700D-01
      0.1429020930D+03  0.6858655181D-01
      0.4023432930D+02  0.2322408730D+00
      0.1282021290D+02  0.4690699481D+00
      0.4390437010D+01  0.3604551991D+00
 SP   3 1.00       0.000000000000
      0.1162636186D+02 -0.1149611817D+00  0.6757974388D-01
      0.2716279807D+01 -0.1691174786D+00  0.3239072959D+00
      0.7722183966D+00  0.1145851947D+01  0.7408951398D+00
 SP   1 1.00       0.000000000000
      0.2120314975D+00  0.1000000000D+01  0.1000000000D+01
 D   1 1.00       0.000000000000
      0.8000000000D+00  0.1000000000D+01
 ****

 There are     8 symmetry adapted cartesian basis functions of AG  symmetry.
 There are     1 symmetry adapted cartesian basis functions of B1G symmetry.
 There are     3 symmetry adapted cartesian basis functions of B2G symmetry.
 There are     3 symmetry adapted cartesian basis functions of B3G symmetry.
 There are     1 symmetry adapted cartesian basis functions of AU  symmetry.
 There are     8 symmetry adapted cartesian basis functions of B1U symmetry.
 There are     3 symmetry adapted cartesian basis functions of B2U symmetry.
 There are     3 symmetry adapted cartesian basis functions of B3U symmetry.
 There are     8 symmetry adapted basis functions of AG  symmetry.
 There are     1 symmetry adapted basis functions of B1G symmetry.
 There are     3 symmetry adapted basis functions of B2G symmetry.
 There are     3 symmetry adapted basis functions of B3G symmetry.
 There are     1 symmetry adapted basis functions of AU  symmetry.
 There are     8 symmetry adapted basis functions of B1U symmetry.
 There are     3 symmetry adapted basis functions of B2U symmetry.
 There are     3 symmetry adapted basis functions of B3U symmetry.
    30 basis functions,    56 primitive gaussians,    30 cartesian basis functions
     7 alpha electrons        6 beta electrons
       nuclear repulsion energy        23.4551634744 Hartrees.
 IExCor=  402 DFT=T Ex+Corr=B3LYP ExCW=0 ScaHFX=  0.200000
 ScaDFX=  0.800000  0.720000  1.000000  0.810000 ScalE2=  1.000000  1.000000
 IRadAn=      0 IRanWt=     -1 IRanGd=            0 ICorTp=0 IEmpDi=  4
 NAtoms=    2 NActive=    2 NUniq=    1 SFac= 4.00D+00 NAtFMM=   60 NAOKFM=F Big=F
 Integral buffers will be    131072 words long.
 Raffenetti 2 integral format.
 Two-electron integral symmetry is turned on.
 Leave Link  301 at Wed Mar 25 13:18:34 2026, MaxMem=    33554432 cpu:         0.0
 (Enter /opt/g09/g09/l302.exe)
 NPDir=0 NMtPBC=     1 NCelOv=     1 NCel=       1 NClECP=     1 NCelD=      1
         NCelK=      1 NCelE2=     1 NClLst=     1 CellRange=     0.0.
 One-electron integrals computed using PRISM.
 One-electron integral symmetry used in STVInt
 NBasis=    30 RedAO= T EigKep=  6.34D-03  NBF=     8     1     3     3     1     8     3     3
 NBsUse=    30 1.00D-06 EigRej= -1.00D+00 NBFU=     8     1     3     3     1     8     3     3
 Precomputing XC quadrature grid using
 IXCGrd= 4 IRadAn=           0 IRanWt=          -1 IRanGd=           0 AccXCQ= 0.00D+00.
 Generated NRdTot=       0 NPtTot=           0 NUsed=           0 NTot=          32
 NSgBfM=    30    30    30    30    30 MxSgAt=     2 MxSgA2=     2.
 Leave Link  302 at Wed Mar 25 13:18:34 2026, MaxMem=    33554432 cpu:         0.0
 (Enter /opt/g09/g09/l303.exe)
 DipDrv:  MaxL=1.
 Leave Link  303 at Wed Mar 25 13:18:34 2026, MaxMem=    33554432 cpu:         0.0
 (Enter /opt/g09/g09/l401.exe)
 Initial guess from the checkpoint file:  "n2p_sgm_B3LYP.chk"
 B after Tr=     0.000000    0.000000    0.000000
         Rot=    1.000000    0.000000    0.000000    0.000000 Ang=   0.00 deg.
 Guess basis will be translated and rotated to current coordinates.
 JPrj=2 DoOrth=T DoCkMO=T.
 No Alpha orbitals switched.
 Pairs of Beta  orbitals switched:
    5   7
 Initial guess orbital symmetries:
 Alpha Orbitals:
       Occupied  (SGG) (SGU) (SGG) (SGU) (PIU) (PIU) (SGG)
       Virtual   (PIG) (PIG) (SGU) (SGG) (PIU) (PIU) (SGG) (PIG)
                 (PIG) (SGU) (SGU) (DLTG) (DLTG) (PIU) (PIU) (DLTU)
                 (DLTU) (SGG) (PIG) (PIG) (SGU) (SGG) (SGU)
 Beta  Orbitals:
       Occupied  (SGG) (SGU) (SGG) (SGU) (SGG) (PIU)
       Virtual   (PIU) (PIG) (PIG) (SGU) (SGG) (PIU) (PIU) (SGG)
                 (PIG) (PIG) (SGU) (SGU) (DLTG) (DLTG) (PIU) (PIU)
                 (DLTU) (DLTU) (SGG) (PIG) (PIG) (SGU) (SGG) (SGU)
 Initial guess <Sx>= 0.0000 <Sy>= 0.0000 <Sz>= 0.5000 <S**2>= 0.7500 S= 0.5000
 Leave Link  401 at Wed Mar 25 13:18:34 2026, MaxMem=    33554432 cpu:         0.0
 (Enter /opt/g09/g09/l502.exe)
 UHF open shell SCF:
 Using DIIS extrapolation, IDIIS=  1040.
 Integral symmetry usage will be decided dynamically.
 Keep R1 and R2 ints in memory in symmetry-blocked form, NReq=992529.
 IVT=       21766 IEndB=       21766 NGot=    33554432 MDV=    33499153
 LenX=    33499153 LenY=    33497812
 Requested convergence on RMS density matrix=1.00D-08 within 128 cycles.
 Requested convergence on MAX density matrix=1.00D-06.
 Requested convergence on             energy=1.00D-06.
 No special actions if energy rises.
 FoFCou: FMM=F IPFlag=           0 FMFlag=           0 FMFlg1=           0
         NFxFlg=           0 DoJE=F BraDBF=F KetDBF=F FulRan=T
         wScrn=  0.000000 ICntrl=     600 IOpCl=  0 I1Cent=           0 NGrid=           0
         NMat0=    1 NMatS0=    465 NMatT0=    0 NMatD0=    1 NMtDS0=    0 NMtDT0=    0
 Petite list used in FoFCou.

 Cycle   1  Pass 1  IDiag  1:
 E= -108.857251812808    
 DIIS: error= 4.44D-02 at cycle   1 NSaved=   1.
 NSaved= 1 IEnMin= 1 EnMin= -108.857251812808     IErMin= 1 ErrMin= 4.44D-02
 ErrMax= 4.44D-02  0.00D+00 EMaxC= 1.00D-01 BMatC= 1.82D-01 BMatP= 1.82D-01
 IDIUse=3 WtCom= 5.56D-01 WtEn= 4.44D-01
 Coeff-Com:  0.100D+01
 Coeff-En:   0.100D+01
 Coeff:      0.100D+01
 Gap=     0.377 Goal=   None    Shift=    0.000
 Gap=     0.048 Goal=   None    Shift=    0.000
 GapD=    0.048 DampG=0.250 DampE=0.500 DampFc=0.2500 IDamp=-1.
 Damping current iteration by 2.50D-01
 RMSDP=1.19D-02 MaxDP=9.76D-02              OVMax= 9.42D-02

 Cycle   2  Pass 1  IDiag  1:
 E= -108.872355072426     Delta-E=       -0.015103259618 Rises=F Damp=T
 DIIS: error= 2.87D-02 at cycle   2 NSaved=   2.
 NSaved= 2 IEnMin= 2 EnMin= -108.872355072426     IErMin= 2 ErrMin= 2.87D-02
 ErrMax= 2.87D-02  0.00D+00 EMaxC= 1.00D-01 BMatC= 7.35D-02 BMatP= 1.82D-01
 IDIUse=3 WtCom= 7.13D-01 WtEn= 2.87D-01
 Coeff-Com: -0.171D+01 0.271D+01
 Coeff-En:   0.000D+00 0.100D+01
 Coeff:     -0.122D+01 0.222D+01
 Gap=     0.367 Goal=   None    Shift=    0.000
 Gap=     0.060 Goal=   None    Shift=    0.000
 RMSDP=6.77D-03 MaxDP=6.76D-02 DE=-1.51D-02 OVMax= 2.28D-02

 Cycle   3  Pass 1  IDiag  1:
 E= -108.904022641902     Delta-E=       -0.031667569476 Rises=F Damp=F
 DIIS: error= 4.21D-03 at cycle   3 NSaved=   3.
 NSaved= 3 IEnMin= 3 EnMin= -108.904022641902     IErMin= 3 ErrMin= 4.21D-03
 ErrMax= 4.21D-03  0.00D+00 EMaxC= 1.00D-01 BMatC= 1.74D-03 BMatP= 7.35D-02
 IDIUse=3 WtCom= 9.58D-01 WtEn= 4.21D-02
 Coeff-Com:  0.892D+00-0.122D+01 0.132D+01
 Coeff-En:   0.000D+00 0.000D+00 0.100D+01
 Coeff:      0.854D+00-0.116D+01 0.131D+01
 Gap=     0.366 Goal=   None    Shift=    0.000
 Gap=     0.063 Goal=   None    Shift=    0.000
 RMSDP=7.04D-04 MaxDP=6.79D-03 DE=-3.17D-02 OVMax= 6.87D-03

 Cycle   4  Pass 1  IDiag  1:
 E= -108.904421758871     Delta-E=       -0.000399116970 Rises=F Damp=F
 DIIS: error= 2.91D-04 at cycle   4 NSaved=   4.
 NSaved= 4 IEnMin= 4 EnMin= -108.904421758871     IErMin= 4 ErrMin= 2.91D-04
 ErrMax= 2.91D-04  0.00D+00 EMaxC= 1.00D-01 BMatC= 7.30D-06 BMatP= 1.74D-03
 IDIUse=3 WtCom= 9.97D-01 WtEn= 2.91D-03
 Coeff-Com: -0.432D-01 0.559D-01-0.182D-01 0.101D+01
 Coeff-En:   0.000D+00 0.000D+00 0.000D+00 0.100D+01
 Coeff:     -0.431D-01 0.557D-01-0.181D-01 0.101D+01
 Gap=     0.365 Goal=   None    Shift=    0.000
 Gap=     0.063 Goal=   None    Shift=    0.000
 RMSDP=4.53D-05 MaxDP=4.58D-04 DE=-3.99D-04 OVMax= 4.40D-04

 Cycle   5  Pass 1  IDiag  1:
 E= -108.904423474561     Delta-E=       -0.000001715689 Rises=F Damp=F
 DIIS: error= 1.41D-05 at cycle   5 NSaved=   5.
 NSaved= 5 IEnMin= 5 EnMin= -108.904423474561     IErMin= 5 ErrMin= 1.41D-05
 ErrMax= 1.41D-05  0.00D+00 EMaxC= 1.00D-01 BMatC= 1.11D-08 BMatP= 7.30D-06
 IDIUse=1 WtCom= 1.00D+00 WtEn= 0.00D+00
 Coeff-Com: -0.196D-03 0.237D-03-0.688D-02-0.715D-01 0.108D+01
 Coeff:     -0.196D-03 0.237D-03-0.688D-02-0.715D-01 0.108D+01
 Gap=     0.365 Goal=   None    Shift=    0.000
 Gap=     0.063 Goal=   None    Shift=    0.000
 RMSDP=3.69D-06 MaxDP=4.31D-05 DE=-1.72D-06 OVMax= 2.55D-05

 Cycle   6  Pass 1  IDiag  1:
 E= -108.904423477839     Delta-E=       -0.000000003278 Rises=F Damp=F
 DIIS: error= 1.93D-06 at cycle   6 NSaved=   6.
 NSaved= 6 IEnMin= 6 EnMin= -108.904423477839     IErMin= 6 ErrMin= 1.93D-06
 ErrMax= 1.93D-06  0.00D+00 EMaxC= 1.00D-01 BMatC= 2.11D-10 BMatP= 1.11D-08
 IDIUse=1 WtCom= 1.00D+00 WtEn= 0.00D+00
 Coeff-Com: -0.118D-03 0.203D-03-0.164D-02-0.228D-01 0.167D+00 0.857D+00
 Coeff:     -0.118D-03 0.203D-03-0.164D-02-0.228D-01 0.167D+00 0.857D+00
 Gap=     0.365 Goal=   None    Shift=    0.000
 Gap=     0.063 Goal=   None    Shift=    0.000
 RMSDP=3.37D-07 MaxDP=5.71D-06 DE=-3.28D-09 OVMax= 2.71D-06

 Cycle   7  Pass 1  IDiag  1:
 E= -108.904423477883     Delta-E=       -0.000000000044 Rises=F Damp=F
 DIIS: error= 1.81D-07 at cycle   7 NSaved=   7.
 NSaved= 7 IEnMin= 7 EnMin= -108.904423477883     IErMin= 7 ErrMin= 1.81D-07
 ErrMax= 1.81D-07  0.00D+00 EMaxC= 1.00D-01 BMatC= 1.76D-12 BMatP= 2.11D-10
 IDIUse=1 WtCom= 1.00D+00 WtEn= 0.00D+00
 Coeff-Com: -0.111D-04 0.139D-04 0.158D-03 0.246D-02-0.262D-01-0.382D-01
 Coeff-Com:  0.106D+01
 Coeff:     -0.111D-04 0.139D-04 0.158D-03 0.246D-02-0.262D-01-0.382D-01
 Coeff:      0.106D+01
 Gap=     0.365 Goal=   None    Shift=    0.000
 Gap=     0.063 Goal=   None    Shift=    0.000
 RMSDP=4.17D-08 MaxDP=6.86D-07 DE=-4.41D-11 OVMax= 2.53D-07

 Cycle   8  Pass 1  IDiag  1:
 E= -108.904423477883     Delta-E=        0.000000000000 Rises=F Damp=F
 DIIS: error= 5.99D-09 at cycle   8 NSaved=   8.
 NSaved= 8 IEnMin= 8 EnMin= -108.904423477883     IErMin= 8 ErrMin= 5.99D-09
 ErrMax= 5.99D-09  0.00D+00 EMaxC= 1.00D-01 BMatC= 1.76D-15 BMatP= 1.76D-12
 IDIUse=1 WtCom= 1.00D+00 WtEn= 0.00D+00
 Coeff-Com: -0.121D-06 0.167D-06-0.265D-05-0.327D-04 0.424D-03 0.125D-02
 Coeff-Com: -0.428D-01 0.104D+01
 Coeff:     -0.121D-06 0.167D-06-0.265D-05-0.327D-04 0.424D-03 0.125D-02
 Coeff:     -0.428D-01 0.104D+01
 Gap=     0.365 Goal=   None    Shift=    0.000
 Gap=     0.063 Goal=   None    Shift=    0.000
 RMSDP=1.11D-09 MaxDP=2.04D-08 DE=-2.27D-13 OVMax= 7.48D-09

 SCF Done:  E(UB3LYP) =  -108.904423478     A.U. after    8 cycles
            NFock=  8  Conv=0.11D-08     -V/T= 2.0066
 <Sx>= 0.0000 <Sy>= 0.0000 <Sz>= 0.5000 <S**2>= 0.7511 S= 0.5006
 <L.S>= 0.000000000000E+00
 KE= 1.081920758161D+02 PE=-2.957649968849D+02 EE= 5.521333411650D+01
 Annihilation of the first spin contaminant:
 S**2 before annihilation     0.7511,   after     0.7500
 Leave Link  502 at Wed Mar 25 13:18:34 2026, MaxMem=    33554432 cpu:         0.1
 (Enter /opt/g09/g09/l601.exe)
 Copying SCF densities to generalized density rwf, IOpCl= 1 IROHF=0.

 **********************************************************************

            Population analysis using the SCF density.

 **********************************************************************

 Orbital symmetries:
 Alpha Orbitals:
       Occupied  (SGG) (SGU) (SGG) (SGU) (PIU) (PIU) (SGG)
       Virtual   (PIG) (PIG) (SGU) (PIU) (SGG) (PIU) (SGG) (SGU)
                 (PIG) (PIG) (SGU) (DLTG) (DLTG) (PIU) (PIU) (DLTU)
                 (DLTU) (SGG) (PIG) (PIG) (SGU) (SGG) (SGU)
 Beta  Orbitals:
       Occupied  (SGG) (SGU) (SGG) (SGU) (PIU) (SGG)
       Virtual   (PIU) (PIG) (PIG) (SGU) (SGG) (PIU) (PIU) (SGG)
                 (SGU) (PIG) (PIG) (SGU) (DLTG) (DLTG) (PIU) (PIU)
                 (DLTU) (DLTU) (SGG) (PIG) (PIG) (SGU) (SGG) (SGU)
 Unable to determine electronic state:  partially filled degenerate orbitals.
 Alpha  occ. eigenvalues --  -14.95286 -14.95116  -1.63803  -0.98354  -0.95733
 Alpha  occ. eigenvalues --   -0.91201  -0.85431
 Alpha virt. eigenvalues --   -0.48884  -0.45010   0.06866   0.21336   0.21460
 Alpha virt. eigenvalues --    0.23712   0.29783   0.37153   0.37580   0.39598
 Alpha virt. eigenvalues --    0.86266   0.99081   0.99095   1.07447   1.11162
 Alpha virt. eigenvalues --    1.49053   1.49078   1.97681   2.14954   2.18044
 Alpha virt. eigenvalues --    2.38808   2.84331   3.16498
  Beta  occ. eigenvalues --  -14.94235 -14.94080  -1.58651  -0.95558  -0.89685
  Beta  occ. eigenvalues --   -0.84018
  Beta virt. eigenvalues --   -0.77709  -0.43814  -0.40295   0.08648   0.22946
  Beta virt. eigenvalues --    0.24251   0.25404   0.30470   0.38274   0.40069
  Beta virt. eigenvalues --    0.41050   0.88091   1.03494   1.03868   1.11890
  Beta virt. eigenvalues --    1.12546   1.52776   1.53145   1.99668   2.18560
  Beta virt. eigenvalues --    2.18869   2.39885   2.87243   3.18519
     Alpha Molecular Orbital Coefficients:
                           1         2         3         4         5
                       (SGG)--O  (SGU)--O  (SGG)--O  (SGU)--O  (PIU)--O
     Eigenvalues --   -14.95286 -14.95116  -1.63803  -0.98354  -0.95733
   1 1   N  1S          0.70191   0.70209  -0.15787  -0.15779   0.00000
   2        2S          0.02502   0.02489   0.35339   0.37965   0.00000
   3        2PX         0.00000   0.00000   0.00000   0.00000   0.00000
   4        2PY         0.00000   0.00000   0.00000   0.00000   0.49303
   5        2PZ        -0.00165  -0.00299  -0.24934   0.21499   0.00000
   6        3S          0.00206   0.00595   0.15783   0.58703   0.00000
   7        3PX         0.00000   0.00000   0.00000   0.00000   0.00000
   8        3PY         0.00000   0.00000   0.00000   0.00000   0.19040
   9        3PZ         0.00065  -0.00177  -0.03421  -0.01415   0.00000
  10        4XX        -0.00581  -0.00624  -0.01845  -0.00320   0.00000
  11        4YY        -0.00565  -0.00606  -0.00665   0.00966   0.00000
  12        4ZZ        -0.00595  -0.00379   0.02583  -0.03866   0.00000
  13        4XY         0.00000   0.00000   0.00000   0.00000   0.00000
  14        4XZ         0.00000   0.00000   0.00000   0.00000   0.00000
  15        4YZ         0.00000   0.00000   0.00000   0.00000  -0.05311
  16 2   N  1S          0.70191  -0.70209  -0.15787   0.15779   0.00000
  17        2S          0.02502  -0.02489   0.35339  -0.37965   0.00000
  18        2PX         0.00000   0.00000   0.00000   0.00000   0.00000
  19        2PY         0.00000   0.00000   0.00000   0.00000   0.49303
  20        2PZ         0.00165  -0.00299   0.24934   0.21499   0.00000
  21        3S          0.00206  -0.00595   0.15783  -0.58703   0.00000
  22        3PX         0.00000   0.00000   0.00000   0.00000   0.00000
  23        3PY         0.00000   0.00000   0.00000   0.00000   0.19040
  24        3PZ        -0.00065  -0.00177   0.03421  -0.01415   0.00000
  25        4XX        -0.00581   0.00624  -0.01845   0.00320   0.00000
  26        4YY        -0.00565   0.00606  -0.00665  -0.00966   0.00000
  27        4ZZ        -0.00595   0.00379   0.02583   0.03866   0.00000
  28        4XY         0.00000   0.00000   0.00000   0.00000   0.00000
  29        4XZ         0.00000   0.00000   0.00000   0.00000   0.00000
  30        4YZ         0.00000   0.00000   0.00000   0.00000   0.05311
                           6         7         8         9        10
                       (PIU)--O  (SGG)--O  (PIG)--V  (PIG)--V  (SGU)--V
     Eigenvalues --    -0.91201  -0.85431  -0.48884  -0.45010   0.06866
   1 1   N  1S          0.00000  -0.06746   0.00000   0.00000  -0.10112
   2        2S          0.00000   0.14815   0.00000   0.00000   0.28665
   3        2PX         0.48893   0.00000   0.00000   0.56717   0.00000
   4        2PY         0.00000   0.00000   0.57669   0.00000   0.00000
   5        2PZ         0.00000   0.47687   0.00000   0.00000  -0.30460
   6        3S          0.00000   0.30578   0.00000   0.00000   3.36237
   7        3PX         0.19571   0.00000   0.00000   0.44952   0.00000
   8        3PY         0.00000   0.00000   0.43351   0.00000   0.00000
   9        3PZ         0.00000   0.14479   0.00000   0.00000  -2.23662
  10        4XX         0.00000   0.00713   0.00000   0.00000   0.00805
  11        4YY         0.00000   0.01310   0.00000   0.00000   0.02263
  12        4ZZ         0.00000  -0.03388   0.00000   0.00000  -0.02134
  13        4XY         0.00000   0.00000   0.00000   0.00000   0.00000
  14        4XZ        -0.05002   0.00000   0.00000   0.00913   0.00000
  15        4YZ         0.00000   0.00000   0.00615   0.00000   0.00000
  16 2   N  1S          0.00000  -0.06746   0.00000   0.00000   0.10112
  17        2S          0.00000   0.14815   0.00000   0.00000  -0.28665
  18        2PX         0.48893   0.00000   0.00000  -0.56717   0.00000
  19        2PY         0.00000   0.00000  -0.57669   0.00000   0.00000
  20        2PZ         0.00000  -0.47687   0.00000   0.00000  -0.30460
  21        3S          0.00000   0.30578   0.00000   0.00000  -3.36237
  22        3PX         0.19571   0.00000   0.00000  -0.44952   0.00000
  23        3PY         0.00000   0.00000  -0.43351   0.00000   0.00000
  24        3PZ         0.00000  -0.14479   0.00000   0.00000  -2.23662
  25        4XX         0.00000   0.00713   0.00000   0.00000  -0.00805
  26        4YY         0.00000   0.01310   0.00000   0.00000  -0.02263
  27        4ZZ         0.00000  -0.03388   0.00000   0.00000   0.02134
  28        4XY         0.00000   0.00000   0.00000   0.00000   0.00000
  29        4XZ         0.05002   0.00000   0.00000   0.00913   0.00000
  30        4YZ         0.00000   0.00000   0.00615   0.00000   0.00000
                          11        12        13        14        15
                       (PIU)--V  (SGG)--V  (PIU)--V  (SGG)--V  (SGU)--V
     Eigenvalues --     0.21336   0.21460   0.23712   0.29783   0.37153
   1 1   N  1S          0.00000   0.01883   0.00000   0.01611  -0.04152
   2        2S          0.00000   0.65846   0.00000  -0.57509  -0.19381
   3        2PX         0.00000   0.00000  -0.60337   0.00000   0.00000
   4        2PY        -0.59915   0.00000   0.00000   0.00000   0.00000
   5        2PZ         0.00000  -0.21805   0.00000  -0.43685  -0.72931
   6        3S          0.00000  -0.57622   0.00000   0.91432   0.00859
   7        3PX         0.00000   0.00000   0.64083   0.00000   0.00000
   8        3PY         0.64249   0.00000   0.00000   0.00000   0.00000
   9        3PZ         0.00000   0.73365   0.00000   0.63219   0.72981
  10        4XX         0.00000   0.07300   0.00000  -0.11746  -0.00469
  11        4YY         0.00000   0.06041   0.00000  -0.12512   0.00492
  12        4ZZ         0.00000   0.19586   0.00000  -0.10447  -0.27162
  13        4XY         0.00000   0.00000   0.00000   0.00000   0.00000
  14        4XZ         0.00000   0.00000   0.08138   0.00000   0.00000
  15        4YZ         0.08092   0.00000   0.00000   0.00000   0.00000
  16 2   N  1S          0.00000   0.01883   0.00000   0.01611   0.04152
  17        2S          0.00000   0.65846   0.00000  -0.57509   0.19381
  18        2PX         0.00000   0.00000  -0.60337   0.00000   0.00000
  19        2PY        -0.59915   0.00000   0.00000   0.00000   0.00000
  20        2PZ         0.00000   0.21805   0.00000   0.43685  -0.72931
  21        3S          0.00000  -0.57622   0.00000   0.91432  -0.00859
  22        3PX         0.00000   0.00000   0.64083   0.00000   0.00000
  23        3PY         0.64249   0.00000   0.00000   0.00000   0.00000
  24        3PZ         0.00000  -0.73365   0.00000  -0.63219   0.72981
  25        4XX         0.00000   0.07300   0.00000  -0.11746   0.00469
  26        4YY         0.00000   0.06041   0.00000  -0.12512  -0.00492
  27        4ZZ         0.00000   0.19586   0.00000  -0.10447   0.27162
  28        4XY         0.00000   0.00000   0.00000   0.00000   0.00000
  29        4XZ         0.00000   0.00000  -0.08138   0.00000   0.00000
  30        4YZ        -0.08092   0.00000   0.00000   0.00000   0.00000
                          16        17        18        19        20
                       (PIG)--V  (PIG)--V  (SGU)--V  (DLTG)--  (DLTG)--
     Eigenvalues --     0.37580   0.39598   0.86266   0.99081   0.99095
   1 1   N  1S          0.00000   0.00000  -0.03215   0.00000   0.00497
   2        2S          0.00000   0.00000  -1.27980   0.00000  -0.00029
   3        2PX         0.00000  -0.64026   0.00000   0.00000   0.00000
   4        2PY        -0.63294   0.00000   0.00000   0.00000   0.00000
   5        2PZ         0.00000   0.00000   0.23666   0.00000  -0.00991
   6        3S          0.00000   0.00000   7.10277   0.00000  -0.01439
   7        3PX         0.00000   1.25454   0.00000   0.00000   0.00000
   8        3PY         1.25918   0.00000   0.00000   0.00000   0.00000
   9        3PZ         0.00000   0.00000  -3.23038   0.00000   0.02041
  10        4XX         0.00000   0.00000  -0.19519   0.00000  -0.55221
  11        4YY         0.00000   0.00000  -0.20353   0.00000   0.57758
  12        4ZZ         0.00000   0.00000  -0.02727   0.00000  -0.00291
  13        4XY         0.00000   0.00000   0.00000   0.65246   0.00000
  14        4XZ         0.00000  -0.02662   0.00000   0.00000   0.00000
  15        4YZ        -0.02319   0.00000   0.00000   0.00000   0.00000
  16 2   N  1S          0.00000   0.00000   0.03215   0.00000   0.00497
  17        2S          0.00000   0.00000   1.27980   0.00000  -0.00029
  18        2PX         0.00000   0.64026   0.00000   0.00000   0.00000
  19        2PY         0.63294   0.00000   0.00000   0.00000   0.00000
  20        2PZ         0.00000   0.00000   0.23666   0.00000   0.00991
  21        3S          0.00000   0.00000  -7.10277   0.00000  -0.01439
  22        3PX         0.00000  -1.25454   0.00000   0.00000   0.00000
  23        3PY        -1.25918   0.00000   0.00000   0.00000   0.00000
  24        3PZ         0.00000   0.00000  -3.23038   0.00000  -0.02041
  25        4XX         0.00000   0.00000   0.19519   0.00000  -0.55221
  26        4YY         0.00000   0.00000   0.20353   0.00000   0.57758
  27        4ZZ         0.00000   0.00000   0.02727   0.00000  -0.00291
  28        4XY         0.00000   0.00000   0.00000   0.65246   0.00000
  29        4XZ         0.00000  -0.02662   0.00000   0.00000   0.00000
  30        4YZ        -0.02319   0.00000   0.00000   0.00000   0.00000
                          21        22        23        24        25
                       (PIU)--V  (PIU)--V  (DLTU)--  (DLTU)--  (SGG)--V
     Eigenvalues --     1.07447   1.11162   1.49053   1.49078   1.97681
   1 1   N  1S          0.00000   0.00000   0.00000   0.00485   0.12378
   2        2S          0.00000   0.00000   0.00000  -0.02109   0.36766
   3        2PX         0.00000   0.26819   0.00000   0.00000   0.00000
   4        2PY         0.27013   0.00000   0.00000   0.00000   0.00000
   5        2PZ         0.00000   0.00000   0.00000   0.01689  -0.34944
   6        3S          0.00000   0.00000   0.00000  -0.06129  -0.52864
   7        3PX         0.00000  -0.05431   0.00000   0.00000   0.00000
   8        3PY        -0.05352   0.00000   0.00000   0.00000   0.00000
   9        3PZ         0.00000   0.00000   0.00000   0.02729   0.58011
  10        4XX         0.00000   0.00000   0.00000  -0.66285   0.66755
  11        4YY         0.00000   0.00000   0.00000   0.68484   0.65094
  12        4ZZ         0.00000   0.00000   0.00000  -0.00481  -0.56785
  13        4XY         0.00000   0.00000   0.77827   0.00000   0.00000
  14        4XZ         0.00000   0.59857   0.00000   0.00000   0.00000
  15        4YZ         0.59836   0.00000   0.00000   0.00000   0.00000
  16 2   N  1S          0.00000   0.00000   0.00000  -0.00485   0.12378
  17        2S          0.00000   0.00000   0.00000   0.02109   0.36766
  18        2PX         0.00000   0.26819   0.00000   0.00000   0.00000
  19        2PY         0.27013   0.00000   0.00000   0.00000   0.00000
  20        2PZ         0.00000   0.00000   0.00000   0.01689   0.34944
  21        3S          0.00000   0.00000   0.00000   0.06129  -0.52864
  22        3PX         0.00000  -0.05431   0.00000   0.00000   0.00000
  23        3PY        -0.05352   0.00000   0.00000   0.00000   0.00000
  24        3PZ         0.00000   0.00000   0.00000   0.02729  -0.58011
  25        4XX         0.00000   0.00000   0.00000   0.66285   0.66755
  26        4YY         0.00000   0.00000   0.00000  -0.68484   0.65094
  27        4ZZ         0.00000   0.00000   0.00000   0.00481  -0.56785
  28        4XY         0.00000   0.00000  -0.77827   0.00000   0.00000
  29        4XZ         0.00000  -0.59857   0.00000   0.00000   0.00000
  30        4YZ        -0.59836   0.00000   0.00000   0.00000   0.00000
                          26        27        28        29        30
                       (PIG)--V  (PIG)--V  (SGU)--V  (SGG)--V  (SGU)--V
     Eigenvalues --     2.14954   2.18044   2.38808   2.84331   3.16498
   1 1   N  1S          0.00000   0.00000  -0.00694  -0.24702  -0.35232
   2        2S          0.00000   0.00000   0.42180   1.25432   0.51325
   3        2PX         0.00000  -0.21941   0.00000   0.00000   0.00000
   4        2PY        -0.21579   0.00000   0.00000   0.00000   0.00000
   5        2PZ         0.00000   0.00000  -1.05414  -0.14112   0.43517
   6        3S          0.00000   0.00000   3.49831   0.84058   3.99348
   7        3PX         0.00000  -0.50158   0.00000   0.00000   0.00000
   8        3PY        -0.50403   0.00000   0.00000   0.00000   0.00000
   9        3PZ         0.00000   0.00000  -1.85625   0.04647  -1.24265
  10        4XX         0.00000   0.00000  -0.53334  -0.80835  -1.07891
  11        4YY         0.00000   0.00000  -0.51843  -0.80415  -1.07062
  12        4ZZ         0.00000   0.00000   1.33018  -1.09016  -1.22501
  13        4XY         0.00000   0.00000   0.00000   0.00000   0.00000
  14        4XZ         0.00000   1.10870   0.00000   0.00000   0.00000
  15        4YZ         1.10880   0.00000   0.00000   0.00000   0.00000
  16 2   N  1S          0.00000   0.00000   0.00694  -0.24702   0.35232
  17        2S          0.00000   0.00000  -0.42180   1.25432  -0.51325
  18        2PX         0.00000   0.21941   0.00000   0.00000   0.00000
  19        2PY         0.21579   0.00000   0.00000   0.00000   0.00000
  20        2PZ         0.00000   0.00000  -1.05414   0.14112   0.43517
  21        3S          0.00000   0.00000  -3.49831   0.84058  -3.99348
  22        3PX         0.00000   0.50158   0.00000   0.00000   0.00000
  23        3PY         0.50403   0.00000   0.00000   0.00000   0.00000
  24        3PZ         0.00000   0.00000  -1.85625  -0.04647  -1.24265
  25        4XX         0.00000   0.00000   0.53334  -0.80835   1.07891
  26        4YY         0.00000   0.00000   0.51843  -0.80415   1.07062
  27        4ZZ         0.00000   0.00000  -1.33018  -1.09016   1.22501
  28        4XY         0.00000   0.00000   0.00000   0.00000   0.00000
  29        4XZ         0.00000   1.10870   0.00000   0.00000   0.00000
  30        4YZ         1.10880   0.00000   0.00000   0.00000   0.00000
     Beta Molecular Orbital Coefficients:
                           1         2         3         4         5
                       (SGG)--O  (SGU)--O  (SGG)--O  (SGU)--O  (PIU)--O
     Eigenvalues --   -14.94235 -14.94080  -1.58651  -0.95558  -0.89685
   1 1   N  1S          0.70209   0.70229  -0.15740  -0.15531   0.00000
   2        2S          0.02410   0.02414   0.34961   0.36790   0.00000
   3        2PX         0.00000   0.00000   0.00000   0.00000   0.48663
   4        2PY         0.00000   0.00000   0.00000   0.00000   0.00000
   5        2PZ        -0.00154  -0.00299  -0.25325   0.22261   0.00000
   6        3S          0.00185   0.00543   0.16065   0.57520   0.00000
   7        3PX         0.00000   0.00000   0.00000   0.00000   0.19853
   8        3PY         0.00000   0.00000   0.00000   0.00000   0.00000
   9        3PZ         0.00061  -0.00169  -0.03270   0.00054   0.00000
  10        4XX        -0.00540  -0.00577  -0.01241   0.00210   0.00000
  11        4YY        -0.00564  -0.00599  -0.01887  -0.00178   0.00000
  12        4ZZ        -0.00547  -0.00333   0.02902  -0.03191   0.00000
  13        4XY         0.00000   0.00000   0.00000   0.00000   0.00000
  14        4XZ         0.00000   0.00000   0.00000   0.00000  -0.04867
  15        4YZ         0.00000   0.00000   0.00000   0.00000   0.00000
  16 2   N  1S          0.70209  -0.70229  -0.15740   0.15531   0.00000
  17        2S          0.02410  -0.02414   0.34961  -0.36790   0.00000
  18        2PX         0.00000   0.00000   0.00000   0.00000   0.48663
  19        2PY         0.00000   0.00000   0.00000   0.00000   0.00000
  20        2PZ         0.00154  -0.00299   0.25325   0.22261   0.00000
  21        3S          0.00185  -0.00543   0.16065  -0.57520   0.00000
  22        3PX         0.00000   0.00000   0.00000   0.00000   0.19853
  23        3PY         0.00000   0.00000   0.00000   0.00000   0.00000
  24        3PZ        -0.00061  -0.00169   0.03270   0.00054   0.00000
  25        4XX        -0.00540   0.00577  -0.01241  -0.00210   0.00000
  26        4YY        -0.00564   0.00599  -0.01887   0.00178   0.00000
  27        4ZZ        -0.00547   0.00333   0.02902   0.03191   0.00000
  28        4XY         0.00000   0.00000   0.00000   0.00000   0.00000
  29        4XZ         0.00000   0.00000   0.00000   0.00000   0.04867
  30        4YZ         0.00000   0.00000   0.00000   0.00000   0.00000
                           6         7         8         9        10
                       (SGG)--O  (PIU)--V  (PIG)--V  (PIG)--V  (SGU)--V
     Eigenvalues --    -0.84018  -0.77709  -0.43814  -0.40295   0.08648
   1 1   N  1S         -0.06817   0.00000   0.00000   0.00000  -0.10299
   2        2S          0.14595   0.00000   0.00000   0.00000   0.28021
   3        2PX         0.00000   0.00000   0.56202   0.00000   0.00000
   4        2PY         0.00000   0.46929   0.00000   0.54395   0.00000
   5        2PZ         0.47362   0.00000   0.00000   0.00000  -0.26959
   6        3S          0.31003   0.00000   0.00000   0.00000   3.49601
   7        3PX         0.00000   0.00000   0.45769   0.00000   0.00000
   8        3PY         0.00000   0.21723   0.00000   0.48939   0.00000
   9        3PZ         0.14898   0.00000   0.00000   0.00000  -2.31967
  10        4XX         0.00930   0.00000   0.00000   0.00000   0.01400
  11        4YY         0.00742   0.00000   0.00000   0.00000   0.00830
  12        4ZZ        -0.02889   0.00000   0.00000   0.00000  -0.01079
  13        4XY         0.00000   0.00000   0.00000   0.00000   0.00000
  14        4XZ         0.00000   0.00000   0.01117   0.00000   0.00000
  15        4YZ         0.00000  -0.04441   0.00000   0.01380   0.00000
  16 2   N  1S         -0.06817   0.00000   0.00000   0.00000   0.10299
  17        2S          0.14595   0.00000   0.00000   0.00000  -0.28021
  18        2PX         0.00000   0.00000  -0.56202   0.00000   0.00000
  19        2PY         0.00000   0.46929   0.00000  -0.54395   0.00000
  20        2PZ        -0.47362   0.00000   0.00000   0.00000  -0.26959
  21        3S          0.31003   0.00000   0.00000   0.00000  -3.49601
  22        3PX         0.00000   0.00000  -0.45769   0.00000   0.00000
  23        3PY         0.00000   0.21723   0.00000  -0.48939   0.00000
  24        3PZ        -0.14898   0.00000   0.00000   0.00000  -2.31967
  25        4XX         0.00930   0.00000   0.00000   0.00000  -0.01400
  26        4YY         0.00742   0.00000   0.00000   0.00000  -0.00830
  27        4ZZ        -0.02889   0.00000   0.00000   0.00000   0.01079
  28        4XY         0.00000   0.00000   0.00000   0.00000   0.00000
  29        4XZ         0.00000   0.00000   0.01117   0.00000   0.00000
  30        4YZ         0.00000   0.04441   0.00000   0.01380   0.00000
                          11        12        13        14        15
                       (SGG)--V  (PIU)--V  (PIU)--V  (SGG)--V  (SGU)--V
     Eigenvalues --     0.22946   0.24251   0.25404   0.30470   0.38274
   1 1   N  1S          0.02131   0.00000   0.00000   0.01621   0.04697
   2        2S          0.63103   0.00000   0.00000  -0.59663   0.19579
   3        2PX         0.00000  -0.60540   0.00000   0.00000   0.00000
   4        2PY         0.00000   0.00000  -0.61966   0.00000   0.00000
   5        2PZ        -0.23542   0.00000   0.00000  -0.43175   0.73391
   6        3S         -0.54787   0.00000   0.00000   0.93261  -0.22277
   7        3PX         0.00000   0.63990   0.00000   0.00000   0.00000
   8        3PY         0.00000   0.00000   0.63376   0.00000   0.00000
   9        3PZ         0.75641   0.00000   0.00000   0.60648  -0.60785
  10        4XX         0.06504   0.00000   0.00000  -0.12586   0.00076
  11        4YY         0.06679   0.00000   0.00000  -0.12063   0.00367
  12        4ZZ         0.19518   0.00000   0.00000  -0.11655   0.27644
  13        4XY         0.00000   0.00000   0.00000   0.00000   0.00000
  14        4XZ         0.00000   0.08202   0.00000   0.00000   0.00000
  15        4YZ         0.00000   0.00000   0.08317   0.00000   0.00000
  16 2   N  1S          0.02131   0.00000   0.00000   0.01621  -0.04697
  17        2S          0.63103   0.00000   0.00000  -0.59663  -0.19579
  18        2PX         0.00000  -0.60540   0.00000   0.00000   0.00000
  19        2PY         0.00000   0.00000  -0.61966   0.00000   0.00000
  20        2PZ         0.23542   0.00000   0.00000   0.43175   0.73391
  21        3S         -0.54787   0.00000   0.00000   0.93261   0.22277
  22        3PX         0.00000   0.63990   0.00000   0.00000   0.00000
  23        3PY         0.00000   0.00000   0.63376   0.00000   0.00000
  24        3PZ        -0.75641   0.00000   0.00000  -0.60648  -0.60785
  25        4XX         0.06504   0.00000   0.00000  -0.12586  -0.00076
  26        4YY         0.06679   0.00000   0.00000  -0.12063  -0.00367
  27        4ZZ         0.19518   0.00000   0.00000  -0.11655  -0.27644
  28        4XY         0.00000   0.00000   0.00000   0.00000   0.00000
  29        4XZ         0.00000  -0.08202   0.00000   0.00000   0.00000
  30        4YZ         0.00000   0.00000  -0.08317   0.00000   0.00000
                          16        17        18        19        20
                       (PIG)--V  (PIG)--V  (SGU)--V  (DLTG)--  (DLTG)--
     Eigenvalues --     0.40069   0.41050   0.88091   1.03494   1.03868
   1 1   N  1S          0.00000   0.00000  -0.03013   0.00000   0.00116
   2        2S          0.00000   0.00000  -1.28291   0.00000   0.00085
   3        2PX        -0.64409   0.00000   0.00000   0.00000   0.00000
   4        2PY         0.00000  -0.65802   0.00000   0.00000   0.00000
   5        2PZ         0.00000   0.00000   0.24901   0.00000  -0.00403
   6        3S          0.00000   0.00000   7.05384   0.00000   0.00076
   7        3PX         1.25190   0.00000   0.00000   0.00000   0.00000
   8        3PY         0.00000   1.24111   0.00000   0.00000   0.00000
   9        3PZ         0.00000   0.00000  -3.20431   0.00000   0.00739
  10        4XX         0.00000   0.00000  -0.20998   0.00000   0.56673
  11        4YY         0.00000   0.00000  -0.19672   0.00000  -0.56332
  12        4ZZ         0.00000   0.00000  -0.02620   0.00000  -0.00601
  13        4XY         0.00000   0.00000   0.00000   0.65246   0.00000
  14        4XZ        -0.02820   0.00000   0.00000   0.00000   0.00000
  15        4YZ         0.00000  -0.03264   0.00000   0.00000   0.00000
  16 2   N  1S          0.00000   0.00000   0.03013   0.00000   0.00116
  17        2S          0.00000   0.00000   1.28291   0.00000   0.00085
  18        2PX         0.64409   0.00000   0.00000   0.00000   0.00000
  19        2PY         0.00000   0.65802   0.00000   0.00000   0.00000
  20        2PZ         0.00000   0.00000   0.24901   0.00000   0.00403
  21        3S          0.00000   0.00000  -7.05384   0.00000   0.00076
  22        3PX        -1.25190   0.00000   0.00000   0.00000   0.00000
  23        3PY         0.00000  -1.24111   0.00000   0.00000   0.00000
  24        3PZ         0.00000   0.00000  -3.20431   0.00000  -0.00739
  25        4XX         0.00000   0.00000   0.20998   0.00000   0.56673
  26        4YY         0.00000   0.00000   0.19672   0.00000  -0.56332
  27        4ZZ         0.00000   0.00000   0.02620   0.00000  -0.00601
  28        4XY         0.00000   0.00000   0.00000   0.65246   0.00000
  29        4XZ        -0.02820   0.00000   0.00000   0.00000   0.00000
  30        4YZ         0.00000  -0.03264   0.00000   0.00000   0.00000
                          21        22        23        24        25
                       (PIU)--V  (PIU)--V  (DLTU)--  (DLTU)--  (SGG)--V
     Eigenvalues --     1.11890   1.12546   1.52776   1.53145   1.99668
   1 1   N  1S          0.00000   0.00000   0.00000   0.00004   0.12385
   2        2S          0.00000   0.00000   0.00000   0.01432   0.36619
   3        2PX         0.26781   0.00000   0.00000   0.00000   0.00000
   4        2PY         0.00000   0.26613   0.00000   0.00000   0.00000
   5        2PZ         0.00000   0.00000   0.00000  -0.00731  -0.34611
   6        3S          0.00000   0.00000   0.00000  -0.05296  -0.53304
   7        3PX        -0.05507   0.00000   0.00000   0.00000   0.00000
   8        3PY         0.00000  -0.05546   0.00000   0.00000   0.00000
   9        3PZ         0.00000   0.00000   0.00000   0.02173   0.57735
  10        4XX         0.00000   0.00000   0.00000  -0.67100   0.65972
  11        4YY         0.00000   0.00000   0.00000   0.67692   0.66628
  12        4ZZ         0.00000   0.00000   0.00000   0.00423  -0.56319
  13        4XY         0.00000   0.00000   0.77827   0.00000   0.00000
  14        4XZ         0.59859   0.00000   0.00000   0.00000   0.00000
  15        4YZ         0.00000   0.59876   0.00000   0.00000   0.00000
  16 2   N  1S          0.00000   0.00000   0.00000  -0.00004   0.12385
  17        2S          0.00000   0.00000   0.00000  -0.01432   0.36619
  18        2PX         0.26781   0.00000   0.00000   0.00000   0.00000
  19        2PY         0.00000   0.26613   0.00000   0.00000   0.00000
  20        2PZ         0.00000   0.00000   0.00000  -0.00731   0.34611
  21        3S          0.00000   0.00000   0.00000   0.05296  -0.53304
  22        3PX        -0.05507   0.00000   0.00000   0.00000   0.00000
  23        3PY         0.00000  -0.05546   0.00000   0.00000   0.00000
  24        3PZ         0.00000   0.00000   0.00000   0.02173  -0.57735
  25        4XX         0.00000   0.00000   0.00000   0.67100   0.65972
  26        4YY         0.00000   0.00000   0.00000  -0.67692   0.66628
  27        4ZZ         0.00000   0.00000   0.00000  -0.00423  -0.56319
  28        4XY         0.00000   0.00000  -0.77827   0.00000   0.00000
  29        4XZ        -0.59859   0.00000   0.00000   0.00000   0.00000
  30        4YZ         0.00000  -0.59876   0.00000   0.00000   0.00000
                          26        27        28        29        30
                       (PIG)--V  (PIG)--V  (SGU)--V  (SGG)--V  (SGU)--V
     Eigenvalues --     2.18560   2.18869   2.39885   2.87243   3.18519
   1 1   N  1S          0.00000   0.00000  -0.00366  -0.24640  -0.35205
   2        2S          0.00000   0.00000   0.41712   1.26010   0.52089
   3        2PX        -0.22143   0.00000   0.00000   0.00000   0.00000
   4        2PY         0.00000  -0.22556   0.00000   0.00000   0.00000
   5        2PZ         0.00000   0.00000  -1.05939  -0.14141   0.42725
   6        3S          0.00000   0.00000   3.45600   0.83468   3.99792
   7        3PX        -0.50079   0.00000   0.00000   0.00000   0.00000
   8        3PY         0.00000  -0.49765   0.00000   0.00000   0.00000
   9        3PZ         0.00000   0.00000  -1.84029   0.05018  -1.24743
  10        4XX         0.00000   0.00000  -0.51622  -0.80423  -1.07938
  11        4YY         0.00000   0.00000  -0.51880  -0.80176  -1.07699
  12        4ZZ         0.00000   0.00000   1.33930  -1.09152  -1.21431
  13        4XY         0.00000   0.00000   0.00000   0.00000   0.00000
  14        4XZ         1.10865   0.00000   0.00000   0.00000   0.00000
  15        4YZ         0.00000   1.10849   0.00000   0.00000   0.00000
  16 2   N  1S          0.00000   0.00000   0.00366  -0.24640   0.35205
  17        2S          0.00000   0.00000  -0.41712   1.26010  -0.52089
  18        2PX         0.22143   0.00000   0.00000   0.00000   0.00000
  19        2PY         0.00000   0.22556   0.00000   0.00000   0.00000
  20        2PZ         0.00000   0.00000  -1.05939   0.14141   0.42725
  21        3S          0.00000   0.00000  -3.45600   0.83468  -3.99792
  22        3PX         0.50079   0.00000   0.00000   0.00000   0.00000
  23        3PY         0.00000   0.49765   0.00000   0.00000   0.00000
  24        3PZ         0.00000   0.00000  -1.84029  -0.05018  -1.24743
  25        4XX         0.00000   0.00000   0.51622  -0.80423   1.07938
  26        4YY         0.00000   0.00000   0.51880  -0.80176   1.07699
  27        4ZZ         0.00000   0.00000  -1.33930  -1.09152   1.21431
  28        4XY         0.00000   0.00000   0.00000   0.00000   0.00000
  29        4XZ         1.10865   0.00000   0.00000   0.00000   0.00000
  30        4YZ         0.00000   1.10849   0.00000   0.00000   0.00000
     Alpha Density Matrix:
                           1         2         3         4         5
   1 1   N  1S          1.03997
   2        2S         -0.09065   0.29221
   3        2PX         0.00000   0.00000   0.23906
   4        2PY         0.00000   0.00000   0.00000   0.24308
   5        2PZ        -0.02999   0.06404   0.00000   0.00000   0.33581
   6        3S         -0.13255   0.32414   0.00000   0.00000   0.23265
   7        3PX         0.00000   0.00000   0.09569   0.00000   0.00000
   8        3PY         0.00000   0.00000   0.00000   0.09388   0.00000
   9        3PZ        -0.00292   0.00396   0.00000   0.00000   0.07454
  10        4XX        -0.00552  -0.00698   0.00000   0.00000   0.00734
  11        4YY        -0.00958   0.00296   0.00000   0.00000   0.01001
  12        4ZZ        -0.00253  -0.01081   0.00000   0.00000  -0.03089
  13        4XY         0.00000   0.00000   0.00000   0.00000   0.00000
  14        4XZ         0.00000   0.00000  -0.02446   0.00000   0.00000
  15        4YZ         0.00000   0.00000   0.00000  -0.02619   0.00000
  16 2   N  1S          0.00432  -0.00580   0.00000   0.00000   0.04206
  17        2S         -0.00580   0.00270   0.00000   0.00000  -0.09905
  18        2PX         0.00000   0.00000   0.23906   0.00000   0.00000
  19        2PY         0.00000   0.00000   0.00000   0.24308   0.00000
  20        2PZ        -0.04206   0.09905   0.00000   0.00000  -0.24335
  21        3S          0.04435  -0.12188   0.00000   0.00000  -0.01973
  22        3PX         0.00000   0.00000   0.09569   0.00000   0.00000
  23        3PY         0.00000   0.00000   0.00000   0.09388   0.00000
  24        3PZ         0.00490  -0.01479   0.00000   0.00000  -0.08061
  25        4XX         0.00223  -0.00424   0.00000   0.00000   0.00868
  26        4YY         0.00197  -0.00407   0.00000   0.00000   0.00582
  27        4ZZ        -0.00941   0.01873   0.00000   0.00000  -0.01429
  28        4XY         0.00000   0.00000   0.00000   0.00000   0.00000
  29        4XZ         0.00000   0.00000   0.02446   0.00000   0.00000
  30        4YZ         0.00000   0.00000   0.00000   0.02619   0.00000
                           6         7         8         9        10
   6        3S          0.46306
   7        3PX         0.00000   0.03830
   8        3PY         0.00000   0.00000   0.03625
   9        3PZ         0.03056   0.00000   0.00000   0.02234
  10        4XX        -0.00266   0.00000   0.00000   0.00172   0.00047
  11        4YY         0.00858   0.00000   0.00000   0.00199   0.00026
  12        4ZZ        -0.02901   0.00000   0.00000  -0.00524  -0.00054
  13        4XY         0.00000   0.00000   0.00000   0.00000   0.00000
  14        4XZ         0.00000  -0.00979   0.00000   0.00000   0.00000
  15        4YZ         0.00000   0.00000  -0.01011   0.00000   0.00000
  16 2   N  1S          0.04435   0.00000   0.00000  -0.00490   0.00223
  17        2S         -0.12188   0.00000   0.00000   0.01479  -0.00424
  18        2PX         0.00000   0.09569   0.00000   0.00000   0.00000
  19        2PY         0.00000   0.00000   0.09388   0.00000   0.00000
  20        2PZ         0.01973   0.00000   0.00000  -0.08061  -0.00868
  21        3S         -0.22622   0.00000   0.00000   0.04719   0.00117
  22        3PX         0.00000   0.03830   0.00000   0.00000   0.00000
  23        3PY         0.00000   0.00000   0.03625   0.00000   0.00000
  24        3PZ        -0.04719   0.00000   0.00000  -0.02193  -0.00160
  25        4XX         0.00117   0.00000   0.00000   0.00160   0.00038
  26        4YY        -0.00269   0.00000   0.00000   0.00225   0.00024
  27        4ZZ         0.01642   0.00000   0.00000  -0.00635  -0.00083
  28        4XY         0.00000   0.00000   0.00000   0.00000   0.00000
  29        4XZ         0.00000   0.00979   0.00000   0.00000   0.00000
  30        4YZ         0.00000   0.00000   0.01011   0.00000   0.00000
                          11        12        13        14        15
  11        4YY         0.00038
  12        4ZZ        -0.00093   0.00336
  13        4XY         0.00000   0.00000   0.00000
  14        4XZ         0.00000   0.00000   0.00000   0.00250
  15        4YZ         0.00000   0.00000   0.00000   0.00000   0.00282
  16 2   N  1S          0.00197  -0.00941   0.00000   0.00000   0.00000
  17        2S         -0.00407   0.01873   0.00000   0.00000   0.00000
  18        2PX         0.00000   0.00000   0.00000  -0.02446   0.00000
  19        2PY         0.00000   0.00000   0.00000   0.00000  -0.02619
  20        2PZ        -0.00582   0.01429   0.00000   0.00000   0.00000
  21        3S         -0.00269   0.01642   0.00000   0.00000   0.00000
  22        3PX         0.00000   0.00000   0.00000  -0.00979   0.00000
  23        3PY         0.00000   0.00000   0.00000   0.00000  -0.01011
  24        3PZ        -0.00225   0.00635   0.00000   0.00000   0.00000
  25        4XX         0.00024  -0.00083   0.00000   0.00000   0.00000
  26        4YY         0.00012  -0.00023   0.00000   0.00000   0.00000
  27        4ZZ        -0.00023   0.00034   0.00000   0.00000   0.00000
  28        4XY         0.00000   0.00000   0.00000   0.00000   0.00000
  29        4XZ         0.00000   0.00000   0.00000  -0.00250   0.00000
  30        4YZ         0.00000   0.00000   0.00000   0.00000  -0.00282
                          16        17        18        19        20
  16 2   N  1S          1.03997
  17        2S         -0.09065   0.29221
  18        2PX         0.00000   0.00000   0.23906
  19        2PY         0.00000   0.00000   0.00000   0.24308
  20        2PZ         0.02999  -0.06404   0.00000   0.00000   0.33581
  21        3S         -0.13255   0.32414   0.00000   0.00000  -0.23265
  22        3PX         0.00000   0.00000   0.09569   0.00000   0.00000
  23        3PY         0.00000   0.00000   0.00000   0.09388   0.00000
  24        3PZ         0.00292  -0.00396   0.00000   0.00000   0.07454
  25        4XX        -0.00552  -0.00698   0.00000   0.00000  -0.00734
  26        4YY        -0.00958   0.00296   0.00000   0.00000  -0.01001
  27        4ZZ        -0.00253  -0.01081   0.00000   0.00000   0.03089
  28        4XY         0.00000   0.00000   0.00000   0.00000   0.00000
  29        4XZ         0.00000   0.00000   0.02446   0.00000   0.00000
  30        4YZ         0.00000   0.00000   0.00000   0.02619   0.00000
                          21        22        23        24        25
  21        3S          0.46306
  22        3PX         0.00000   0.03830
  23        3PY         0.00000   0.00000   0.03625
  24        3PZ        -0.03056   0.00000   0.00000   0.02234
  25        4XX        -0.00266   0.00000   0.00000  -0.00172   0.00047
  26        4YY         0.00858   0.00000   0.00000  -0.00199   0.00026
  27        4ZZ        -0.02901   0.00000   0.00000   0.00524  -0.00054
  28        4XY         0.00000   0.00000   0.00000   0.00000   0.00000
  29        4XZ         0.00000   0.00979   0.00000   0.00000   0.00000
  30        4YZ         0.00000   0.00000   0.01011   0.00000   0.00000
                          26        27        28        29        30
  26        4YY         0.00038
  27        4ZZ        -0.00093   0.00336
  28        4XY         0.00000   0.00000   0.00000
  29        4XZ         0.00000   0.00000   0.00000   0.00250
  30        4YZ         0.00000   0.00000   0.00000   0.00000   0.00282
     Beta Density Matrix:
                           1         2         3         4         5
   1 1   N  1S          1.03969
   2        2S         -0.08824   0.28004
   3        2PX         0.00000   0.00000   0.23681
   4        2PY         0.00000   0.00000   0.00000   0.00000
   5        2PZ        -0.03018   0.06238   0.00000   0.00000   0.33801
   6        3S         -0.13065   0.31320   0.00000   0.00000   0.23418
   7        3PX         0.00000   0.00000   0.09661   0.00000   0.00000
   8        3PY         0.00000   0.00000   0.00000   0.00000   0.00000
   9        3PZ        -0.00585   0.01048   0.00000   0.00000   0.07896
  10        4XX        -0.00685  -0.00248   0.00000   0.00000   0.00804
  11        4YY        -0.00542  -0.00645   0.00000   0.00000   0.00792
  12        4ZZ        -0.00382  -0.00602   0.00000   0.00000  -0.02812
  13        4XY         0.00000   0.00000   0.00000   0.00000   0.00000
  14        4XZ         0.00000   0.00000  -0.02369   0.00000   0.00000
  15        4YZ         0.00000   0.00000   0.00000   0.00000   0.00000
  16 2   N  1S          0.00502  -0.00788   0.00000   0.00000   0.04317
  17        2S         -0.00788   0.00818   0.00000   0.00000  -0.10127
  18        2PX         0.00000   0.00000   0.23681   0.00000   0.00000
  19        2PY         0.00000   0.00000   0.00000   0.00000   0.00000
  20        2PZ        -0.04317   0.10127   0.00000   0.00000  -0.23889
  21        3S          0.04040  -0.11029   0.00000   0.00000  -0.02188
  22        3PX         0.00000   0.00000   0.09661   0.00000   0.00000
  23        3PY         0.00000   0.00000   0.00000   0.00000   0.00000
  24        3PZ         0.00332  -0.01017   0.00000   0.00000  -0.07871
  25        4XX         0.00191  -0.00374   0.00000   0.00000   0.00707
  26        4YY         0.00244  -0.00485   0.00000   0.00000   0.00868
  27        4ZZ        -0.00906   0.01762   0.00000   0.00000  -0.01393
  28        4XY         0.00000   0.00000   0.00000   0.00000   0.00000
  29        4XZ         0.00000   0.00000   0.02369   0.00000   0.00000
  30        4YZ         0.00000   0.00000   0.00000   0.00000   0.00000
                           6         7         8         9        10
   6        3S          0.45282
   7        3PX         0.00000   0.03941
   8        3PY         0.00000   0.00000   0.00000
   9        3PZ         0.04123   0.00000   0.00000   0.02327
  10        4XX         0.00206   0.00000   0.00000   0.00180   0.00031
  11        4YY        -0.00180   0.00000   0.00000   0.00173   0.00036
  12        4ZZ        -0.02267   0.00000   0.00000  -0.00527  -0.00065
  13        4XY         0.00000   0.00000   0.00000   0.00000   0.00000
  14        4XZ         0.00000  -0.00966   0.00000   0.00000   0.00000
  15        4YZ         0.00000   0.00000   0.00000   0.00000   0.00000
  16 2   N  1S          0.04040   0.00000   0.00000  -0.00332   0.00191
  17        2S         -0.11029   0.00000   0.00000   0.01017  -0.00374
  18        2PX         0.00000   0.09661   0.00000   0.00000   0.00000
  19        2PY         0.00000   0.00000   0.00000   0.00000   0.00000
  20        2PZ         0.02188   0.00000   0.00000  -0.07871  -0.00707
  21        3S         -0.20896   0.00000   0.00000   0.04064  -0.00030
  22        3PX         0.00000   0.03941   0.00000   0.00000   0.00000
  23        3PY         0.00000   0.00000   0.00000   0.00000   0.00000
  24        3PZ        -0.04064   0.00000   0.00000  -0.02326  -0.00178
  25        4XX        -0.00030   0.00000   0.00000   0.00178   0.00023
  26        4YY         0.00031   0.00000   0.00000   0.00171   0.00030
  27        4ZZ         0.01407   0.00000   0.00000  -0.00524  -0.00055
  28        4XY         0.00000   0.00000   0.00000   0.00000   0.00000
  29        4XZ         0.00000   0.00966   0.00000   0.00000   0.00000
  30        4YZ         0.00000   0.00000   0.00000   0.00000   0.00000
                          11        12        13        14        15
  11        4YY         0.00048
  12        4ZZ        -0.00065   0.00274
  13        4XY         0.00000   0.00000   0.00000
  14        4XZ         0.00000   0.00000   0.00000   0.00237
  15        4YZ         0.00000   0.00000   0.00000   0.00000   0.00000
  16 2   N  1S          0.00244  -0.00906   0.00000   0.00000   0.00000
  17        2S         -0.00485   0.01762   0.00000   0.00000   0.00000
  18        2PX         0.00000   0.00000   0.00000  -0.02369   0.00000
  19        2PY         0.00000   0.00000   0.00000   0.00000   0.00000
  20        2PZ        -0.00868   0.01393   0.00000   0.00000   0.00000
  21        3S          0.00031   0.01407   0.00000   0.00000   0.00000
  22        3PX         0.00000   0.00000   0.00000  -0.00966   0.00000
  23        3PY         0.00000   0.00000   0.00000   0.00000   0.00000
  24        3PZ        -0.00171   0.00524   0.00000   0.00000   0.00000
  25        4XX         0.00030  -0.00055   0.00000   0.00000   0.00000
  26        4YY         0.00040  -0.00081   0.00000   0.00000   0.00000
  27        4ZZ        -0.00081   0.00068   0.00000   0.00000   0.00000
  28        4XY         0.00000   0.00000   0.00000   0.00000   0.00000
  29        4XZ         0.00000   0.00000   0.00000  -0.00237   0.00000
  30        4YZ         0.00000   0.00000   0.00000   0.00000   0.00000
                          16        17        18        19        20
  16 2   N  1S          1.03969
  17        2S         -0.08824   0.28004
  18        2PX         0.00000   0.00000   0.23681
  19        2PY         0.00000   0.00000   0.00000   0.00000
  20        2PZ         0.03018  -0.06238   0.00000   0.00000   0.33801
  21        3S         -0.13065   0.31320   0.00000   0.00000  -0.23418
  22        3PX         0.00000   0.00000   0.09661   0.00000   0.00000
  23        3PY         0.00000   0.00000   0.00000   0.00000   0.00000
  24        3PZ         0.00585  -0.01048   0.00000   0.00000   0.07896
  25        4XX        -0.00685  -0.00248   0.00000   0.00000  -0.00804
  26        4YY        -0.00542  -0.00645   0.00000   0.00000  -0.00792
  27        4ZZ        -0.00382  -0.00602   0.00000   0.00000   0.02812
  28        4XY         0.00000   0.00000   0.00000   0.00000   0.00000
  29        4XZ         0.00000   0.00000   0.02369   0.00000   0.00000
  30        4YZ         0.00000   0.00000   0.00000   0.00000   0.00000
                          21        22        23        24        25
  21        3S          0.45282
  22        3PX         0.00000   0.03941
  23        3PY         0.00000   0.00000   0.00000
  24        3PZ        -0.04123   0.00000   0.00000   0.02327
  25        4XX         0.00206   0.00000   0.00000  -0.00180   0.00031
  26        4YY        -0.00180   0.00000   0.00000  -0.00173   0.00036
  27        4ZZ        -0.02267   0.00000   0.00000   0.00527  -0.00065
  28        4XY         0.00000   0.00000   0.00000   0.00000   0.00000
  29        4XZ         0.00000   0.00966   0.00000   0.00000   0.00000
  30        4YZ         0.00000   0.00000   0.00000   0.00000   0.00000
                          26        27        28        29        30
  26        4YY         0.00048
  27        4ZZ        -0.00065   0.00274
  28        4XY         0.00000   0.00000   0.00000
  29        4XZ         0.00000   0.00000   0.00000   0.00237
  30        4YZ         0.00000   0.00000   0.00000   0.00000   0.00000
    Full Mulliken population analysis:
                           1         2         3         4         5
   1 1   N  1S          2.07966
   2        2S         -0.03975   0.57225
   3        2PX         0.00000   0.00000   0.47586
   4        2PY         0.00000   0.00000   0.00000   0.24308
   5        2PZ         0.00000   0.00000   0.00000   0.00000   0.67383
   6        3S         -0.04524   0.49427   0.00000   0.00000   0.00000
   7        3PX         0.00000   0.00000   0.09986   0.00000   0.00000
   8        3PY         0.00000   0.00000   0.00000   0.04875   0.00000
   9        3PZ         0.00000   0.00000   0.00000   0.00000   0.07971
  10        4XX        -0.00062  -0.00601   0.00000   0.00000   0.00000
  11        4YY        -0.00076  -0.00222   0.00000   0.00000   0.00000
  12        4ZZ        -0.00032  -0.01071   0.00000   0.00000   0.00000
  13        4XY         0.00000   0.00000   0.00000   0.00000   0.00000
  14        4XZ         0.00000   0.00000   0.00000   0.00000   0.00000
  15        4YZ         0.00000   0.00000   0.00000   0.00000   0.00000
  16 2   N  1S          0.00000  -0.00031   0.00000   0.00000  -0.00412
  17        2S         -0.00031   0.00238   0.00000   0.00000   0.05943
  18        2PX         0.00000   0.00000   0.05930   0.00000   0.00000
  19        2PY         0.00000   0.00000   0.00000   0.03029   0.00000
  20        2PZ        -0.00412   0.05943   0.00000   0.00000   0.16437
  21        3S          0.00595  -0.08829   0.00000   0.00000   0.00990
  22        3PX         0.00000   0.00000   0.04755   0.00000   0.00000
  23        3PY         0.00000   0.00000   0.00000   0.02321   0.00000
  24        3PZ         0.00107  -0.01408   0.00000   0.00000   0.01899
  25        4XX         0.00001  -0.00095   0.00000   0.00000  -0.00241
  26        4YY         0.00001  -0.00106   0.00000   0.00000  -0.00222
  27        4ZZ        -0.00220   0.01698   0.00000   0.00000   0.01238
  28        4XY         0.00000   0.00000   0.00000   0.00000   0.00000
  29        4XZ         0.00000   0.00000   0.01381   0.00000   0.00000
  30        4YZ         0.00000   0.00000   0.00000   0.00751   0.00000
                           6         7         8         9        10
   6        3S          0.91588
   7        3PX         0.00000   0.07772
   8        3PY         0.00000   0.00000   0.03625
   9        3PZ         0.00000   0.00000   0.00000   0.04561
  10        4XX        -0.00040   0.00000   0.00000   0.00000   0.00078
  11        4YY         0.00454   0.00000   0.00000   0.00000   0.00021
  12        4ZZ        -0.03464   0.00000   0.00000   0.00000  -0.00039
  13        4XY         0.00000   0.00000   0.00000   0.00000   0.00000
  14        4XZ         0.00000   0.00000   0.00000   0.00000   0.00000
  15        4YZ         0.00000   0.00000   0.00000   0.00000   0.00000
  16 2   N  1S          0.00595   0.00000   0.00000   0.00107   0.00001
  17        2S         -0.08829   0.00000   0.00000  -0.01408  -0.00095
  18        2PX         0.00000   0.04755   0.00000   0.00000   0.00000
  19        2PY         0.00000   0.00000   0.02321   0.00000   0.00000
  20        2PZ         0.00990   0.00000   0.00000   0.01899  -0.00241
  21        3S         -0.27398   0.00000   0.00000  -0.05319   0.00028
  22        3PX         0.00000   0.04893   0.00000   0.00000   0.00000
  23        3PY         0.00000   0.00000   0.02283   0.00000   0.00000
  24        3PZ        -0.05319   0.00000   0.00000  -0.00212  -0.00166
  25        4XX         0.00028   0.00000   0.00000  -0.00166   0.00011
  26        4YY        -0.00077   0.00000   0.00000  -0.00194   0.00003
  27        4ZZ         0.01365   0.00000   0.00000   0.00488  -0.00036
  28        4XY         0.00000   0.00000   0.00000   0.00000   0.00000
  29        4XZ         0.00000   0.00438   0.00000   0.00000   0.00000
  30        4YZ         0.00000   0.00000   0.00228   0.00000   0.00000
                          11        12        13        14        15
  11        4YY         0.00086
  12        4ZZ        -0.00053   0.00610
  13        4XY         0.00000   0.00000   0.00000
  14        4XZ         0.00000   0.00000   0.00000   0.00487
  15        4YZ         0.00000   0.00000   0.00000   0.00000   0.00282
  16 2   N  1S          0.00001  -0.00220   0.00000   0.00000   0.00000
  17        2S         -0.00106   0.01698   0.00000   0.00000   0.00000
  18        2PX         0.00000   0.00000   0.00000   0.01381   0.00000
  19        2PY         0.00000   0.00000   0.00000   0.00000   0.00751
  20        2PZ        -0.00222   0.01238   0.00000   0.00000   0.00000
  21        3S         -0.00077   0.01365   0.00000   0.00000   0.00000
  22        3PX         0.00000   0.00000   0.00000   0.00438   0.00000
  23        3PY         0.00000   0.00000   0.00000   0.00000   0.00228
  24        3PZ        -0.00194   0.00488   0.00000   0.00000   0.00000
  25        4XX         0.00003  -0.00036   0.00000   0.00000   0.00000
  26        4YY         0.00009  -0.00027   0.00000   0.00000   0.00000
  27        4ZZ        -0.00027   0.00049   0.00000   0.00000   0.00000
  28        4XY         0.00000   0.00000   0.00000   0.00000   0.00000
  29        4XZ         0.00000   0.00000   0.00000   0.00212   0.00000
  30        4YZ         0.00000   0.00000   0.00000   0.00000   0.00123
                          16        17        18        19        20
  16 2   N  1S          2.07966
  17        2S         -0.03975   0.57225
  18        2PX         0.00000   0.00000   0.47586
  19        2PY         0.00000   0.00000   0.00000   0.24308
  20        2PZ         0.00000   0.00000   0.00000   0.00000   0.67383
  21        3S         -0.04524   0.49427   0.00000   0.00000   0.00000
  22        3PX         0.00000   0.00000   0.09986   0.00000   0.00000
  23        3PY         0.00000   0.00000   0.00000   0.04875   0.00000
  24        3PZ         0.00000   0.00000   0.00000   0.00000   0.07971
  25        4XX        -0.00062  -0.00601   0.00000   0.00000   0.00000
  26        4YY        -0.00076  -0.00222   0.00000   0.00000   0.00000
  27        4ZZ        -0.00032  -0.01071   0.00000   0.00000   0.00000
  28        4XY         0.00000   0.00000   0.00000   0.00000   0.00000
  29        4XZ         0.00000   0.00000   0.00000   0.00000   0.00000
  30        4YZ         0.00000   0.00000   0.00000   0.00000   0.00000
                          21        22        23        24        25
  21        3S          0.91588
  22        3PX         0.00000   0.07772
  23        3PY         0.00000   0.00000   0.03625
  24        3PZ         0.00000   0.00000   0.00000   0.04561
  25        4XX        -0.00040   0.00000   0.00000   0.00000   0.00078
  26        4YY         0.00454   0.00000   0.00000   0.00000   0.00021
  27        4ZZ        -0.03464   0.00000   0.00000   0.00000  -0.00039
  28        4XY         0.00000   0.00000   0.00000   0.00000   0.00000
  29        4XZ         0.00000   0.00000   0.00000   0.00000   0.00000
  30        4YZ         0.00000   0.00000   0.00000   0.00000   0.00000
                          26        27        28        29        30
  26        4YY         0.00086
  27        4ZZ        -0.00053   0.00610
  28        4XY         0.00000   0.00000   0.00000
  29        4XZ         0.00000   0.00000   0.00000   0.00487
  30        4YZ         0.00000   0.00000   0.00000   0.00000   0.00282
     Gross orbital populations:
                         Total     Alpha     Beta      Spin
   1 1   N  1S          1.99339   0.99663   0.99675  -0.00012
   2        2S          0.98192   0.49692   0.48500   0.01192
   3        2PX         0.69638   0.34921   0.34717   0.00205
   4        2PY         0.35285   0.35285   0.00000   0.35285
   5        2PZ         1.00986   0.50317   0.50669  -0.00352
   6        3S          0.94795   0.47348   0.47447  -0.00098
   7        3PX         0.27844   0.13798   0.14046  -0.00249
   8        3PY         0.13332   0.13332   0.00000   0.13332
   9        3PZ         0.07726   0.03412   0.04314  -0.00902
  10        4XX        -0.01140  -0.00849  -0.00290  -0.00559
  11        4YY        -0.00402   0.00394  -0.00796   0.01190
  12        4ZZ         0.00504   0.00022   0.00482  -0.00459
  13        4XY         0.00000   0.00000   0.00000   0.00000
  14        4XZ         0.02518   0.01281   0.01237   0.00044
  15        4YZ         0.01383   0.01383   0.00000   0.01383
  16 2   N  1S          1.99339   0.99663   0.99675  -0.00012
  17        2S          0.98192   0.49692   0.48500   0.01192
  18        2PX         0.69638   0.34921   0.34717   0.00205
  19        2PY         0.35285   0.35285   0.00000   0.35285
  20        2PZ         1.00986   0.50317   0.50669  -0.00352
  21        3S          0.94795   0.47348   0.47447  -0.00098
  22        3PX         0.27844   0.13798   0.14046  -0.00249
  23        3PY         0.13332   0.13332   0.00000   0.13332
  24        3PZ         0.07726   0.03412   0.04314  -0.00902
  25        4XX        -0.01140  -0.00849  -0.00290  -0.00559
  26        4YY        -0.00402   0.00394  -0.00796   0.01190
  27        4ZZ         0.00504   0.00022   0.00482  -0.00459
  28        4XY         0.00000   0.00000   0.00000   0.00000
  29        4XZ         0.02518   0.01281   0.01237   0.00044
  30        4YZ         0.01383   0.01383   0.00000   0.01383
          Condensed to atoms (all electrons):
               1          2
     1  N    6.307052   0.192948
     2  N    0.192948   6.307052
          Atomic-Atomic Spin Densities.
               1          2
     1  N    0.409772   0.090228
     2  N    0.090228   0.409772
 Mulliken charges and spin densities:
               1          2
     1  N    0.500000   0.500000
     2  N    0.500000   0.500000
 Sum of Mulliken charges =   1.00000   1.00000
 Mulliken charges and spin densities with hydrogens summed into heavy atoms:
               1          2
     1  N    0.500000   0.500000
     2  N    0.500000   0.500000
 Atomic Valencies and Mayer Atomic Bond Orders:
               1          2
     1  N    1.838831   1.838831
     2  N    1.838831   1.838831
 Lowdin Atomic Charges:
               1
     1  N    0.500000
     2  N    0.500000
 Sum of Lowdin charges  =   1.00000
 Lowdin atomic charges with hydrogens summed into heavy atoms:
               1
     1  N    0.500000
     2  N    0.500000
 Sum of Lowdin charges  =   1.00000
 Dipole moment from Lowdin charges (Debye):
    X=     0.0000    Y=     0.0000    Z=     0.0000  Tot=     0.0000
 Electronic spatial extent (au):  <R**2>=             33.2582
 Charge=              1.0000 electrons
 Dipole moment (field-independent basis, Debye):
    X=              0.0000    Y=              0.0000    Z=              0.0000  Tot=              0.0000
 Quadrupole moment (field-independent basis, Debye-Ang):
   XX=             -8.5336   YY=             -7.3871   ZZ=             -8.2673
   XY=              0.0000   XZ=              0.0000   YZ=              0.0000
 Traceless Quadrupole moment (field-independent basis, Debye-Ang):
   XX=             -0.4710   YY=              0.6756   ZZ=             -0.2046
   XY=              0.0000   XZ=              0.0000   YZ=              0.0000
 Octapole moment (field-independent basis, Debye-Ang**2):
  XXX=              0.0000  YYY=              0.0000  ZZZ=              0.0000  XYY=              0.0000
  XXY=              0.0000  XXZ=              0.0000  XZZ=              0.0000  YZZ=              0.0000
  YYZ=              0.0000  XYZ=              0.0000
 Hexadecapole moment (field-independent basis, Debye-Ang**3):
 XXXX=             -6.2515 YYYY=             -4.9301 ZZZZ=            -23.9752 XXXY=              0.0000
 XXXZ=              0.0000 YYYX=              0.0000 YYYZ=              0.0000 ZZZX=              0.0000
 ZZZY=              0.0000 XXYY=             -1.8636 XXZZ=             -4.8762 YYZZ=             -4.4444
 XXYZ=              0.0000 YYXZ=              0.0000 ZZXY=              0.0000
 N-N= 2.345516347436D+01 E-N=-2.957649968103D+02  KE= 1.081920758161D+02
 Symmetry AG   KE= 5.350175373479D+01
 Symmetry B1G  KE= 1.187771872807D-34
 Symmetry B2G  KE= 3.166130946472D-33
 Symmetry B3G  KE= 2.294634421759D-32
 Symmetry AU   KE= 4.215981712670D-34
 Symmetry B1U  KE= 4.904733460989D+01
 Symmetry B2U  KE= 1.900919138389D+00
 Symmetry B3U  KE= 3.742068333045D+00
 Orbital energies and kinetic energies (alpha):
                                 1                 2
   1 (SGG)--O                -14.952859         21.950887
   2 (SGU)--O                -14.951164         21.967927
   3 (SGG)--O                 -1.638026          2.612732
   4 (SGU)--O                 -0.983543          2.578007
   5 (PIU)--O                 -0.957325          1.900919
   6 (PIU)--O                 -0.912009          1.877401
   7 (SGG)--O                 -0.854309          2.190990
   8 (PIG)--V                 -0.488837          2.444514
   9 (PIG)--V                 -0.450096          2.394478
  10 (SGU)--V                  0.068660          2.122727
  11 (PIU)--V                  0.213359          2.126770
  12 (SGG)--V                  0.214597          1.437973
  13 (PIU)--V                  0.237125          2.153078
  14 (SGG)--V                  0.297826          1.969908
  15 (SGU)--V                  0.371527          3.352664
  16 (PIG)--V                  0.375802          2.343445
  17 (PIG)--V                  0.395981          2.388096
  18 (SGU)--V                  0.862658          2.592194
  19 (DLTG)--V                 0.990811          2.592486
  20 (DLTG)--V                 0.990948          2.593101
  21 (PIU)--V                  1.074470          3.005540
  22 (PIU)--V                  1.111615          3.002750
  23 (DLTU)--V                 1.490531          3.095257
  24 (DLTU)--V                 1.490778          3.097553
  25 (SGG)--V                  1.976810          4.058507
  26 (PIG)--V                  2.149538          3.896736
  27 (PIG)--V                  2.180443          3.902121
  28 (SGU)--V                  2.388083          5.732340
  29 (SGG)--V                  2.843315          8.459063
  30 (SGU)--V                  3.164984          9.526517
 Orbital energies and kinetic energies (beta):
                                 1                 2
   1 (SGG)--O                -14.942351         21.965697
   2 (SGU)--O                -14.940795         21.982927
   3 (SGG)--O                 -1.586514          2.612650
   4 (SGU)--O                 -0.955578          2.518475
   5 (PIU)--O                 -0.896848          1.864667
   6 (SGG)--O                 -0.840179          2.168797
   7 (PIU)--V                 -0.777092          1.776500
   8 (PIG)--V                 -0.438139          2.367919
   9 (PIG)--V                 -0.402954          2.274606
  10 (SGU)--V                  0.086480          2.030944
  11 (SGG)--V                  0.229461          1.422583
  12 (PIU)--V                  0.242506          2.166463
  13 (PIU)--V                  0.254042          2.257021
  14 (SGG)--V                  0.304696          1.991002
  15 (SGU)--V                  0.382741          3.412040
  16 (PIG)--V                  0.400691          2.411715
  17 (PIG)--V                  0.410501          2.498840
  18 (SGU)--V                  0.880915          2.656446
  19 (DLTG)--V                 1.034940          2.592486
  20 (DLTG)--V                 1.038679          2.592506
  21 (PIU)--V                  1.118902          3.002100
  22 (PIU)--V                  1.125462          2.999709
  23 (DLTU)--V                 1.527756          3.095257
  24 (DLTU)--V                 1.531447          3.095407
  25 (SGG)--V                  1.996681          4.054313
  26 (PIG)--V                  2.185599          3.905061
  27 (PIG)--V                  2.188687          3.911249
  28 (SGU)--V                  2.398848          5.740006
  29 (SGG)--V                  2.872430          8.465613
  30 (SGU)--V                  3.185190          9.533686
 Total kinetic energy from orbitals= 1.081920758161D+02
                          Isotropic Fermi Contact Couplings
        Atom                 a.u.       MegaHertz       Gauss      10(-4) cm-1
     1  N(14)              0.03508      11.33301       4.04390       3.78028
     2  N(14)              0.03508      11.33301       4.04390       3.78028
 --------------------------------------------------------
       Center         ----  Spin Dipole Couplings  ----
                      3XX-RR        3YY-RR        3ZZ-RR
 --------------------------------------------------------
     1   Atom       -0.655932      1.202428     -0.546495
     2   Atom       -0.655932      1.202428     -0.546495
 --------------------------------------------------------
                        XY            XZ            YZ
 --------------------------------------------------------
     1   Atom        0.000000      0.000000      0.000000
     2   Atom        0.000000      0.000000      0.000000
 --------------------------------------------------------


 ---------------------------------------------------------------------------------
              Anisotropic Spin Dipole Couplings in Principal Axis System
 ---------------------------------------------------------------------------------

       Atom             a.u.   MegaHertz   Gauss  10(-4) cm-1        Axes

              Baa    -0.6559   -25.298    -9.027    -8.438  1.0000  0.0000  0.0000
     1 N(14)  Bbb    -0.5465   -21.077    -7.521    -7.031  0.0000  0.0000  1.0000
              Bcc     1.2024    46.375    16.548    15.469  0.0000  1.0000  0.0000
 
              Baa    -0.6559   -25.298    -9.027    -8.438  1.0000  0.0000  0.0000
     2 N(14)  Bbb    -0.5465   -21.077    -7.521    -7.031  0.0000  0.0000  1.0000
              Bcc     1.2024    46.375    16.548    15.469  0.0000  1.0000  0.0000
 

 ---------------------------------------------------------------------------------

 No NMR shielding tensors so no spin-rotation constants.
 Leave Link  601 at Wed Mar 25 13:18:34 2026, MaxMem=    33554432 cpu:         0.1
 (Enter /opt/g09/g09/l9999.exe)

 Test job not archived.
 1\1\GINC-KADET27\SP\UB3LYP\6-31G(d)\N2(1+,2)\MDOROHUN\25-Mar-2026\4\\#
 P B3LYP/6-31G(d) guess=(read,alter) GFInput Pop=Full IOP(6/80=1)\\n2 e
 nergia jonu w stanie Sigma B3LYP\\1,2\N\N,1,1.1055\\\5,7\\Version=ES64
 L-G09RevD.01\HF=-108.9044235\S2=0.751103\S2-1=0.\S2A=0.750001\RMSD=1.1
 10e-09\Dipole=0.,0.,0.\Quadrupole=-0.3501659,0.5022881,-0.1521221,0.,0
 .,0.\PG=D*H [C*(N1.N1)]\\@


 IT IS BY LOGIC THAT WE PROVE, BUT BY INTUITION THAT WE DISCOVER.
     -- J.H.POINCARE (1854-1912)
 Job cpu time:       0 days  0 hours  0 minutes  0.3 seconds.
 File lengths (MBytes):  RWF=      5 Int=      0 D2E=      0 Chk=      2 Scr=      1
 Normal termination of Gaussian 09 at Wed Mar 25 13:18:34 2026.
