 Entering Gaussian System, Link 0=/opt/g09/g09/g09
 Input=n2p_pi_B3LYP.inp
 Output=n2p_pi_B3LYP.log
 Initial command:
 /opt/g09/g09/l1.exe "/tmp/Gau-12281.inp" -scrdir="/tmp/"
 Entering Link 1 = /opt/g09/g09/l1.exe PID=     12283.
  
 Copyright (c) 1988,1990,1992,1993,1995,1998,2003,2009,2013,
            Gaussian, Inc.  All Rights Reserved.
  
 This is part of the Gaussian(R) 09 program.  It is based on
 the Gaussian(R) 03 system (copyright 2003, Gaussian, Inc.),
 the Gaussian(R) 98 system (copyright 1998, Gaussian, Inc.),
 the Gaussian(R) 94 system (copyright 1995, Gaussian, Inc.),
 the Gaussian 92(TM) system (copyright 1992, Gaussian, Inc.),
 the Gaussian 90(TM) system (copyright 1990, Gaussian, Inc.),
 the Gaussian 88(TM) system (copyright 1988, Gaussian, Inc.),
 the Gaussian 86(TM) system (copyright 1986, Carnegie Mellon
 University), and the Gaussian 82(TM) system (copyright 1983,
 Carnegie Mellon University). Gaussian is a federally registered
 trademark of Gaussian, Inc.
  
 This software contains proprietary and confidential information,
 including trade secrets, belonging to Gaussian, Inc.
  
 This software is provided under written license and may be
 used, copied, transmitted, or stored only in accord with that
 written license.
  
 The following legend is applicable only to US Government
 contracts under FAR:
  
                    RESTRICTED RIGHTS LEGEND
  
 Use, reproduction and disclosure by the US Government is
 subject to restrictions as set forth in subparagraphs (a)
 and (c) of the Commercial Computer Software - Restricted
 Rights clause in FAR 52.227-19.
  
 Gaussian, Inc.
 340 Quinnipiac St., Bldg. 40, Wallingford CT 06492
  
  
 ---------------------------------------------------------------
 Warning -- This program may not be used in any manner that
 competes with the business of Gaussian, Inc. or will provide
 assistance to any competitor of Gaussian, Inc.  The licensee
 of this program is prohibited from giving any competitor of
 Gaussian, Inc. access to this program.  By using this program,
 the user acknowledges that Gaussian, Inc. is engaged in the
 business of creating and licensing software in the field of
 computational chemistry and represents and warrants to the
 licensee that it is not a competitor of Gaussian, Inc. and that
 it will not use this program in any manner prohibited above.
 ---------------------------------------------------------------
  

 Cite this work as:
 Gaussian 09, Revision D.01,
 M. J. Frisch, G. W. Trucks, H. B. Schlegel, G. E. Scuseria, 
 M. A. Robb, J. R. Cheeseman, G. Scalmani, V. Barone, B. Mennucci, 
 G. A. Petersson, H. Nakatsuji, M. Caricato, X. Li, H. P. Hratchian, 
 A. F. Izmaylov, J. Bloino, G. Zheng, J. L. Sonnenberg, M. Hada, 
 M. Ehara, K. Toyota, R. Fukuda, J. Hasegawa, M. Ishida, T. Nakajima, 
 Y. Honda, O. Kitao, H. Nakai, T. Vreven, J. A. Montgomery, Jr., 
 J. E. Peralta, F. Ogliaro, M. Bearpark, J. J. Heyd, E. Brothers, 
 K. N. Kudin, V. N. Staroverov, T. Keith, R. Kobayashi, J. Normand, 
 K. Raghavachari, A. Rendell, J. C. Burant, S. S. Iyengar, J. Tomasi, 
 M. Cossi, N. Rega, J. M. Millam, M. Klene, J. E. Knox, J. B. Cross, 
 V. Bakken, C. Adamo, J. Jaramillo, R. Gomperts, R. E. Stratmann, 
 O. Yazyev, A. J. Austin, R. Cammi, C. Pomelli, J. W. Ochterski, 
 R. L. Martin, K. Morokuma, V. G. Zakrzewski, G. A. Voth, 
 P. Salvador, J. J. Dannenberg, S. Dapprich, A. D. Daniels, 
 O. Farkas, J. B. Foresman, J. V. Ortiz, J. Cioslowski, 
 and D. J. Fox, Gaussian, Inc., Wallingford CT, 2013.
 
 ******************************************
 Gaussian 09:  ES64L-G09RevD.01 24-Apr-2013
                25-Mar-2026 
 ******************************************
 %oldchk=n2_B3LYP.chk
 %chk=n2p_pi_B3LYP.chk
 Copying data from "n2_B3LYP.chk" to current chk file "n2p_pi_B3LYP.chk".
 ---------------------------------------------------------
 #P B3LYP/6-31G(d) guess=read GFInput Pop=Full IOP(6/80=1)
 ---------------------------------------------------------
 1/38=1/1;
 2/12=2,17=6,18=5,40=1/2;
 3/5=1,6=6,7=1,11=2,16=1,24=10,25=1,30=1,74=-5,116=-2/1,2,3;
 4/5=1/1;
 5/5=2,38=6/2;
 6/7=3,28=1,80=1/1;
 99/5=1,9=1/99;
 Leave Link    1 at Wed Mar 25 13:18:30 2026, MaxMem=    33554432 cpu:         0.0
 (Enter /opt/g09/g09/l101.exe)
 ---------------------------------
 n2 energia jonu w stanie Pi B3LYP
 ---------------------------------
 Symbolic Z-matrix:
 Charge =  1 Multiplicity = 2
 N
 N                    1     1.1055 
 
 NAtoms=      2 NQM=        2 NQMF=       0 NMMI=      0 NMMIF=      0
                NMic=       0 NMicF=      0.
                    Isotopes and Nuclear Properties:
 (Nuclear quadrupole moments (NQMom) in fm**2, nuclear magnetic moments (NMagM)
  in nuclear magnetons)

  Atom         1           2
 IAtWgt=          14          14
 AtmWgt=  14.0030740  14.0030740
 NucSpn=           2           2
 AtZEff=   0.0000000   0.0000000
 NQMom=    2.0440000   2.0440000
 NMagM=    0.4037610   0.4037610
 AtZNuc=   7.0000000   7.0000000
 Leave Link  101 at Wed Mar 25 13:18:30 2026, MaxMem=    33554432 cpu:         0.0
 (Enter /opt/g09/g09/l202.exe)
                          Input orientation:                          
 ---------------------------------------------------------------------
 Center     Atomic      Atomic             Coordinates (Angstroms)
 Number     Number       Type             X           Y           Z
 ---------------------------------------------------------------------
      1          7           0        0.000000    0.000000    0.000000
      2          7           0        0.000000    0.000000    1.105500
 ---------------------------------------------------------------------
 Stoichiometry    N2(1+,2)
 Framework group  D*H[C*(N.N)]
 Deg. of freedom     1
 Full point group                 D*H     NOp   8
 Largest Abelian subgroup         D2H     NOp   8
 Largest concise Abelian subgroup C2      NOp   2
                         Standard orientation:                         
 ---------------------------------------------------------------------
 Center     Atomic      Atomic             Coordinates (Angstroms)
 Number     Number       Type             X           Y           Z
 ---------------------------------------------------------------------
      1          7           0        0.000000    0.000000    0.552750
      2          7           0        0.000000    0.000000   -0.552750
 ---------------------------------------------------------------------
 Rotational constants (GHZ):      0.0000000     59.0617504     59.0617504
 Leave Link  202 at Wed Mar 25 13:18:30 2026, MaxMem=    33554432 cpu:         0.0
 (Enter /opt/g09/g09/l301.exe)
 Standard basis: 6-31G(d) (6D, 7F)
 Ernie: Thresh=  0.10000D-02 Tol=  0.10000D-05 Strict=F.
 AO basis set in the form of general basis input (Overlap normalization):
      1 0
 S   6 1.00       0.000000000000
      0.4173511460D+04  0.1834772160D-02
      0.6274579110D+03  0.1399462700D-01
      0.1429020930D+03  0.6858655181D-01
      0.4023432930D+02  0.2322408730D+00
      0.1282021290D+02  0.4690699481D+00
      0.4390437010D+01  0.3604551991D+00
 SP   3 1.00       0.000000000000
      0.1162636186D+02 -0.1149611817D+00  0.6757974388D-01
      0.2716279807D+01 -0.1691174786D+00  0.3239072959D+00
      0.7722183966D+00  0.1145851947D+01  0.7408951398D+00
 SP   1 1.00       0.000000000000
      0.2120314975D+00  0.1000000000D+01  0.1000000000D+01
 D   1 1.00       0.000000000000
      0.8000000000D+00  0.1000000000D+01
 ****
      2 0
 S   6 1.00       0.000000000000
      0.4173511460D+04  0.1834772160D-02
      0.6274579110D+03  0.1399462700D-01
      0.1429020930D+03  0.6858655181D-01
      0.4023432930D+02  0.2322408730D+00
      0.1282021290D+02  0.4690699481D+00
      0.4390437010D+01  0.3604551991D+00
 SP   3 1.00       0.000000000000
      0.1162636186D+02 -0.1149611817D+00  0.6757974388D-01
      0.2716279807D+01 -0.1691174786D+00  0.3239072959D+00
      0.7722183966D+00  0.1145851947D+01  0.7408951398D+00
 SP   1 1.00       0.000000000000
      0.2120314975D+00  0.1000000000D+01  0.1000000000D+01
 D   1 1.00       0.000000000000
      0.8000000000D+00  0.1000000000D+01
 ****

 There are     8 symmetry adapted cartesian basis functions of AG  symmetry.
 There are     1 symmetry adapted cartesian basis functions of B1G symmetry.
 There are     3 symmetry adapted cartesian basis functions of B2G symmetry.
 There are     3 symmetry adapted cartesian basis functions of B3G symmetry.
 There are     1 symmetry adapted cartesian basis functions of AU  symmetry.
 There are     8 symmetry adapted cartesian basis functions of B1U symmetry.
 There are     3 symmetry adapted cartesian basis functions of B2U symmetry.
 There are     3 symmetry adapted cartesian basis functions of B3U symmetry.
 There are     8 symmetry adapted basis functions of AG  symmetry.
 There are     1 symmetry adapted basis functions of B1G symmetry.
 There are     3 symmetry adapted basis functions of B2G symmetry.
 There are     3 symmetry adapted basis functions of B3G symmetry.
 There are     1 symmetry adapted basis functions of AU  symmetry.
 There are     8 symmetry adapted basis functions of B1U symmetry.
 There are     3 symmetry adapted basis functions of B2U symmetry.
 There are     3 symmetry adapted basis functions of B3U symmetry.
    30 basis functions,    56 primitive gaussians,    30 cartesian basis functions
     7 alpha electrons        6 beta electrons
       nuclear repulsion energy        23.4551634744 Hartrees.
 IExCor=  402 DFT=T Ex+Corr=B3LYP ExCW=0 ScaHFX=  0.200000
 ScaDFX=  0.800000  0.720000  1.000000  0.810000 ScalE2=  1.000000  1.000000
 IRadAn=      0 IRanWt=     -1 IRanGd=            0 ICorTp=0 IEmpDi=  4
 NAtoms=    2 NActive=    2 NUniq=    1 SFac= 4.00D+00 NAtFMM=   60 NAOKFM=F Big=F
 Integral buffers will be    131072 words long.
 Raffenetti 2 integral format.
 Two-electron integral symmetry is turned on.
 Leave Link  301 at Wed Mar 25 13:18:30 2026, MaxMem=    33554432 cpu:         0.0
 (Enter /opt/g09/g09/l302.exe)
 NPDir=0 NMtPBC=     1 NCelOv=     1 NCel=       1 NClECP=     1 NCelD=      1
         NCelK=      1 NCelE2=     1 NClLst=     1 CellRange=     0.0.
 One-electron integrals computed using PRISM.
 One-electron integral symmetry used in STVInt
 NBasis=    30 RedAO= T EigKep=  6.34D-03  NBF=     8     1     3     3     1     8     3     3
 NBsUse=    30 1.00D-06 EigRej= -1.00D+00 NBFU=     8     1     3     3     1     8     3     3
 Precomputing XC quadrature grid using
 IXCGrd= 4 IRadAn=           0 IRanWt=          -1 IRanGd=           0 AccXCQ= 0.00D+00.
 Generated NRdTot=       0 NPtTot=           0 NUsed=           0 NTot=          32
 NSgBfM=    30    30    30    30    30 MxSgAt=     2 MxSgA2=     2.
 Leave Link  302 at Wed Mar 25 13:18:30 2026, MaxMem=    33554432 cpu:         0.0
 (Enter /opt/g09/g09/l303.exe)
 DipDrv:  MaxL=1.
 Leave Link  303 at Wed Mar 25 13:18:30 2026, MaxMem=    33554432 cpu:         0.0
 (Enter /opt/g09/g09/l401.exe)
 Initial guess from the checkpoint file:  "n2p_pi_B3LYP.chk"
 B after Tr=     0.000000    0.000000    0.000000
         Rot=    1.000000    0.000000    0.000000    0.000000 Ang=   0.00 deg.
 Guess basis will be translated and rotated to current coordinates.
 JPrj=2 DoOrth=T DoCkMO=T.
 Initial guess orbital symmetries:
 Alpha Orbitals:
       Occupied  (SGG) (SGU) (SGG) (SGU) (PIU) (PIU) (SGG)
       Virtual   (PIG) (PIG) (SGU) (SGG) (PIU) (PIU) (SGG) (PIG)
                 (PIG) (SGU) (SGU) (DLTG) (DLTG) (PIU) (PIU) (DLTU)
                 (DLTU) (SGG) (PIG) (PIG) (SGU) (SGG) (SGU)
 Beta  Orbitals:
       Occupied  (SGG) (SGU) (SGG) (SGU) (PIU) (PIU)
       Virtual   (SGG) (PIG) (PIG) (SGU) (SGG) (PIU) (PIU) (SGG)
                 (PIG) (PIG) (SGU) (SGU) (DLTG) (DLTG) (PIU) (PIU)
                 (DLTU) (DLTU) (SGG) (PIG) (PIG) (SGU) (SGG) (SGU)
 The electronic state of the initial guess is 2-SGG.
 Initial guess <Sx>= 0.0000 <Sy>= 0.0000 <Sz>= 0.5000 <S**2>= 0.7500 S= 0.5000
 Leave Link  401 at Wed Mar 25 13:18:30 2026, MaxMem=    33554432 cpu:         0.0
 (Enter /opt/g09/g09/l502.exe)
 UHF open shell SCF:
 Using DIIS extrapolation, IDIIS=  1040.
 Integral symmetry usage will be decided dynamically.
 Keep R1 and R2 ints in memory in symmetry-blocked form, NReq=992529.
 IVT=       21766 IEndB=       21766 NGot=    33554432 MDV=    33499153
 LenX=    33499153 LenY=    33497812
 Requested convergence on RMS density matrix=1.00D-08 within 128 cycles.
 Requested convergence on MAX density matrix=1.00D-06.
 Requested convergence on             energy=1.00D-06.
 No special actions if energy rises.
 FoFCou: FMM=F IPFlag=           0 FMFlag=           0 FMFlg1=           0
         NFxFlg=           0 DoJE=F BraDBF=F KetDBF=F FulRan=T
         wScrn=  0.000000 ICntrl=     600 IOpCl=  0 I1Cent=           0 NGrid=           0
         NMat0=    1 NMatS0=    465 NMatT0=    0 NMatD0=    1 NMtDS0=    0 NMtDT0=    0
 Petite list used in FoFCou.

 Cycle   1  Pass 1  IDiag  1:
 E= -108.901226837378    
 DIIS: error= 5.13D-02 at cycle   1 NSaved=   1.
 NSaved= 1 IEnMin= 1 EnMin= -108.901226837378     IErMin= 1 ErrMin= 5.13D-02
 ErrMax= 5.13D-02  0.00D+00 EMaxC= 1.00D-01 BMatC= 1.68D-01 BMatP= 1.68D-01
 IDIUse=3 WtCom= 4.87D-01 WtEn= 5.13D-01
 Coeff-Com:  0.100D+01
 Coeff-En:   0.100D+01
 Coeff:      0.100D+01
 Gap=     0.446 Goal=   None    Shift=    0.000
 Gap=     0.136 Goal=   None    Shift=    0.000
 GapD=    0.136 DampG=1.000 DampE=0.500 DampFc=0.5000 IDamp=-1.
 Damping current iteration by 5.00D-01
 RMSDP=1.04D-02 MaxDP=8.25D-02              OVMax= 9.34D-02

 Cycle   2  Pass 1  IDiag  1:
 E= -108.926043857891     Delta-E=       -0.024817020514 Rises=F Damp=T
 DIIS: error= 1.86D-02 at cycle   2 NSaved=   2.
 NSaved= 2 IEnMin= 2 EnMin= -108.926043857891     IErMin= 2 ErrMin= 1.86D-02
 ErrMax= 1.86D-02  0.00D+00 EMaxC= 1.00D-01 BMatC= 1.46D-02 BMatP= 1.68D-01
 IDIUse=3 WtCom= 8.14D-01 WtEn= 1.86D-01
 Coeff-Com: -0.347D+00 0.135D+01
 Coeff-En:   0.000D+00 0.100D+01
 Coeff:     -0.283D+00 0.128D+01
 Gap=     0.437 Goal=   None    Shift=    0.000
 Gap=     0.142 Goal=   None    Shift=    0.000
 RMSDP=2.98D-03 MaxDP=3.00D-02 DE=-2.48D-02 OVMax= 2.63D-02

 Cycle   3  Pass 1  IDiag  1:
 E= -108.945993479055     Delta-E=       -0.019949621164 Rises=F Damp=F
 DIIS: error= 2.20D-03 at cycle   3 NSaved=   3.
 NSaved= 3 IEnMin= 3 EnMin= -108.945993479055     IErMin= 3 ErrMin= 2.20D-03
 ErrMax= 2.20D-03  0.00D+00 EMaxC= 1.00D-01 BMatC= 2.32D-04 BMatP= 1.46D-02
 IDIUse=3 WtCom= 9.78D-01 WtEn= 2.20D-02
 Coeff-Com:  0.288D-01-0.258D-01 0.997D+00
 Coeff-En:   0.000D+00 0.000D+00 0.100D+01
 Coeff:      0.282D-01-0.252D-01 0.997D+00
 Gap=     0.438 Goal=   None    Shift=    0.000
 Gap=     0.147 Goal=   None    Shift=    0.000
 RMSDP=3.61D-04 MaxDP=5.99D-03 DE=-1.99D-02 OVMax= 4.20D-03

 Cycle   4  Pass 1  IDiag  1:
 E= -108.946049022732     Delta-E=       -0.000055543677 Rises=F Damp=F
 DIIS: error= 3.98D-04 at cycle   4 NSaved=   4.
 NSaved= 4 IEnMin= 4 EnMin= -108.946049022732     IErMin= 4 ErrMin= 3.98D-04
 ErrMax= 3.98D-04  0.00D+00 EMaxC= 1.00D-01 BMatC= 8.09D-06 BMatP= 2.32D-04
 IDIUse=3 WtCom= 9.96D-01 WtEn= 3.98D-03
 Coeff-Com:  0.155D-01-0.519D-01 0.928D-01 0.944D+00
 Coeff-En:   0.000D+00 0.000D+00 0.000D+00 0.100D+01
 Coeff:      0.155D-01-0.517D-01 0.924D-01 0.944D+00
 Gap=     0.438 Goal=   None    Shift=    0.000
 Gap=     0.147 Goal=   None    Shift=    0.000
 RMSDP=5.64D-05 MaxDP=8.88D-04 DE=-5.55D-05 OVMax= 6.50D-04

 Cycle   5  Pass 1  IDiag  1:
 E= -108.946051028471     Delta-E=       -0.000002005740 Rises=F Damp=F
 DIIS: error= 3.78D-05 at cycle   5 NSaved=   5.
 NSaved= 5 IEnMin= 5 EnMin= -108.946051028471     IErMin= 5 ErrMin= 3.78D-05
 ErrMax= 3.78D-05  0.00D+00 EMaxC= 1.00D-01 BMatC= 1.12D-07 BMatP= 8.09D-06
 IDIUse=1 WtCom= 1.00D+00 WtEn= 0.00D+00
 Coeff-Com: -0.200D-02 0.366D-02-0.160D-01-0.210D-01 0.104D+01
 Coeff:     -0.200D-02 0.366D-02-0.160D-01-0.210D-01 0.104D+01
 Gap=     0.438 Goal=   None    Shift=    0.000
 Gap=     0.147 Goal=   None    Shift=    0.000
 RMSDP=7.72D-06 MaxDP=9.03D-05 DE=-2.01D-06 OVMax= 6.84D-05

 Cycle   6  Pass 1  IDiag  1:
 E= -108.946051058763     Delta-E=       -0.000000030292 Rises=F Damp=F
 DIIS: error= 2.16D-06 at cycle   6 NSaved=   6.
 NSaved= 6 IEnMin= 6 EnMin= -108.946051058763     IErMin= 6 ErrMin= 2.16D-06
 ErrMax= 2.16D-06  0.00D+00 EMaxC= 1.00D-01 BMatC= 2.47D-10 BMatP= 1.12D-07
 IDIUse=1 WtCom= 1.00D+00 WtEn= 0.00D+00
 Coeff-Com:  0.117D-03-0.183D-03 0.742D-03-0.246D-02-0.410D-01 0.104D+01
 Coeff:      0.117D-03-0.183D-03 0.742D-03-0.246D-02-0.410D-01 0.104D+01
 Gap=     0.438 Goal=   None    Shift=    0.000
 Gap=     0.147 Goal=   None    Shift=    0.000
 RMSDP=3.14D-07 MaxDP=3.76D-06 DE=-3.03D-08 OVMax= 2.99D-06

 Cycle   7  Pass 1  IDiag  1:
 E= -108.946051058830     Delta-E=       -0.000000000067 Rises=F Damp=F
 DIIS: error= 1.99D-07 at cycle   7 NSaved=   7.
 NSaved= 7 IEnMin= 7 EnMin= -108.946051058830     IErMin= 7 ErrMin= 1.99D-07
 ErrMax= 1.99D-07  0.00D+00 EMaxC= 1.00D-01 BMatC= 1.55D-12 BMatP= 2.47D-10
 IDIUse=1 WtCom= 1.00D+00 WtEn= 0.00D+00
 Coeff-Com: -0.939D-05 0.132D-04-0.262D-04 0.321D-03 0.196D-02-0.176D+00
 Coeff-Com:  0.117D+01
 Coeff:     -0.939D-05 0.132D-04-0.262D-04 0.321D-03 0.196D-02-0.176D+00
 Coeff:      0.117D+01
 Gap=     0.438 Goal=   None    Shift=    0.000
 Gap=     0.147 Goal=   None    Shift=    0.000
 RMSDP=2.34D-08 MaxDP=2.19D-07 DE=-6.68D-11 OVMax= 6.61D-07

 Cycle   8  Pass 1  IDiag  1:
 E= -108.946051058831     Delta-E=       -0.000000000001 Rises=F Damp=F
 DIIS: error= 5.21D-09 at cycle   8 NSaved=   8.
 NSaved= 8 IEnMin= 8 EnMin= -108.946051058831     IErMin= 8 ErrMin= 5.21D-09
 ErrMax= 5.21D-09  0.00D+00 EMaxC= 1.00D-01 BMatC= 1.57D-15 BMatP= 1.55D-12
 IDIUse=1 WtCom= 1.00D+00 WtEn= 0.00D+00
 Coeff-Com:  0.650D-06-0.983D-06 0.232D-06-0.193D-04-0.590D-04 0.136D-01
 Coeff-Com: -0.106D+00 0.109D+01
 Coeff:      0.650D-06-0.983D-06 0.232D-06-0.193D-04-0.590D-04 0.136D-01
 Coeff:     -0.106D+00 0.109D+01
 Gap=     0.438 Goal=   None    Shift=    0.000
 Gap=     0.147 Goal=   None    Shift=    0.000
 RMSDP=1.74D-09 MaxDP=2.22D-08 DE=-8.53D-13 OVMax= 8.47D-09

 SCF Done:  E(UB3LYP) =  -108.946051059     A.U. after    8 cycles
            NFock=  8  Conv=0.17D-08     -V/T= 2.0098
 <Sx>= 0.0000 <Sy>= 0.0000 <Sz>= 0.5000 <S**2>= 0.7535 S= 0.5017
 <L.S>= 0.000000000000E+00
 KE= 1.078852324058D+02 PE=-2.956884478993D+02 EE= 5.540200096024D+01
 Annihilation of the first spin contaminant:
 S**2 before annihilation     0.7535,   after     0.7500
 Leave Link  502 at Wed Mar 25 13:18:30 2026, MaxMem=    33554432 cpu:         0.1
 (Enter /opt/g09/g09/l601.exe)
 Copying SCF densities to generalized density rwf, IOpCl= 1 IROHF=0.

 **********************************************************************

            Population analysis using the SCF density.

 **********************************************************************

 Orbital symmetries:
 Alpha Orbitals:
       Occupied  (SGG) (SGU) (SGG) (SGU) (SGG) (PIU) (PIU)
       Virtual   (PIG) (PIG) (SGU) (SGG) (PIU) (PIU) (SGG) (SGU)
                 (PIG) (PIG) (SGU) (DLTG) (DLTG) (PIU) (PIU) (DLTU)
                 (DLTU) (SGG) (PIG) (PIG) (SGU) (SGG) (SGU)
 Beta  Orbitals:
       Occupied  (SGG) (SGU) (SGG) (SGU) (PIU) (PIU)
       Virtual   (SGG) (PIG) (PIG) (SGU) (SGG) (PIU) (PIU) (SGG)
                 (PIG) (PIG) (SGU) (SGU) (DLTG) (DLTG) (PIU) (PIU)
                 (DLTU) (DLTU) (SGG) (PIG) (PIG) (SGU) (SGG) (SGU)
 The electronic state is 2-SGG.
 Alpha  occ. eigenvalues --  -14.95026 -14.94856  -1.57849  -1.01974  -0.90842
 Alpha  occ. eigenvalues --   -0.89015  -0.89015
 Alpha virt. eigenvalues --   -0.45250  -0.45250   0.06693   0.23616   0.24875
 Alpha virt. eigenvalues --    0.24875   0.27055   0.33951   0.39443   0.39443
 Alpha virt. eigenvalues --    0.88486   1.03744   1.03744   1.09932   1.09932
 Alpha virt. eigenvalues --    1.52311   1.52311   1.96636   2.15173   2.15173
 Alpha virt. eigenvalues --    2.35274   2.85516   3.15692
  Beta  occ. eigenvalues --  -14.93781 -14.93638  -1.55040  -0.92825  -0.87646
  Beta  occ. eigenvalues --   -0.87646
  Beta virt. eigenvalues --   -0.72898  -0.42870  -0.42870   0.08494   0.25347
  Beta virt. eigenvalues --    0.25520   0.25520   0.30853   0.40348   0.40348
  Beta virt. eigenvalues --    0.40835   0.89150   1.04617   1.04617   1.14252
  Beta virt. eigenvalues --    1.14252   1.53590   1.53590   2.01401   2.19447
  Beta virt. eigenvalues --    2.19447   2.41360   2.87997   3.19094
     Alpha Molecular Orbital Coefficients:
                           1         2         3         4         5
                       (SGG)--O  (SGU)--O  (SGG)--O  (SGU)--O  (SGG)--O
     Eigenvalues --   -14.95026 -14.94856  -1.57849  -1.01974  -0.90842
   1 1   N  1S          0.70191   0.70204  -0.15989  -0.15292  -0.06495
   2        2S          0.02481   0.02455   0.36074   0.37683   0.15642
   3        2PX         0.00000   0.00000   0.00000   0.00000   0.00000
   4        2PY         0.00000   0.00000   0.00000   0.00000   0.00000
   5        2PZ        -0.00080  -0.00144  -0.23778   0.24547   0.49023
   6        3S          0.00200   0.00593   0.16670   0.51560   0.27660
   7        3PX         0.00000   0.00000   0.00000   0.00000   0.00000
   8        3PY         0.00000   0.00000   0.00000   0.00000   0.00000
   9        3PZ         0.00017  -0.00177  -0.02729   0.01579   0.14645
  10        4XX        -0.00584  -0.00619  -0.01553  -0.00527   0.00493
  11        4YY        -0.00584  -0.00619  -0.01553  -0.00527   0.00493
  12        4ZZ        -0.00561  -0.00447   0.02624  -0.01550  -0.01285
  13        4XY         0.00000   0.00000   0.00000   0.00000   0.00000
  14        4XZ         0.00000   0.00000   0.00000   0.00000   0.00000
  15        4YZ         0.00000   0.00000   0.00000   0.00000   0.00000
  16 2   N  1S          0.70191  -0.70204  -0.15989   0.15292  -0.06495
  17        2S          0.02481  -0.02455   0.36074  -0.37683   0.15642
  18        2PX         0.00000   0.00000   0.00000   0.00000   0.00000
  19        2PY         0.00000   0.00000   0.00000   0.00000   0.00000
  20        2PZ         0.00080  -0.00144   0.23778   0.24547  -0.49023
  21        3S          0.00200  -0.00593   0.16670  -0.51560   0.27660
  22        3PX         0.00000   0.00000   0.00000   0.00000   0.00000
  23        3PY         0.00000   0.00000   0.00000   0.00000   0.00000
  24        3PZ        -0.00017  -0.00177   0.02729   0.01579  -0.14645
  25        4XX        -0.00584   0.00619  -0.01553   0.00527   0.00493
  26        4YY        -0.00584   0.00619  -0.01553   0.00527   0.00493
  27        4ZZ        -0.00561   0.00447   0.02624   0.01550  -0.01285
  28        4XY         0.00000   0.00000   0.00000   0.00000   0.00000
  29        4XZ         0.00000   0.00000   0.00000   0.00000   0.00000
  30        4YZ         0.00000   0.00000   0.00000   0.00000   0.00000
                           6         7         8         9        10
                       (PIU)--O  (PIU)--O  (PIG)--V  (PIG)--V  (SGU)--V
     Eigenvalues --    -0.89015  -0.89015  -0.45250  -0.45250   0.06693
   1 1   N  1S          0.00000   0.00000   0.00000   0.00000  -0.10613
   2        2S          0.00000   0.00000   0.00000   0.00000   0.28259
   3        2PX         0.49248   0.00000   0.00000   0.55944   0.00000
   4        2PY         0.00000   0.49248   0.55944   0.00000   0.00000
   5        2PZ         0.00000   0.00000   0.00000   0.00000  -0.24133
   6        3S          0.00000   0.00000   0.00000   0.00000   3.51632
   7        3PX         0.19650   0.00000   0.00000   0.44882   0.00000
   8        3PY         0.00000   0.19650   0.44882   0.00000   0.00000
   9        3PZ         0.00000   0.00000   0.00000   0.00000  -2.33210
  10        4XX         0.00000   0.00000   0.00000   0.00000   0.01108
  11        4YY         0.00000   0.00000   0.00000   0.00000   0.01108
  12        4ZZ         0.00000   0.00000   0.00000   0.00000  -0.02207
  13        4XY         0.00000   0.00000   0.00000   0.00000   0.00000
  14        4XZ        -0.03755   0.00000   0.00000   0.02754   0.00000
  15        4YZ         0.00000  -0.03755   0.02754   0.00000   0.00000
  16 2   N  1S          0.00000   0.00000   0.00000   0.00000   0.10613
  17        2S          0.00000   0.00000   0.00000   0.00000  -0.28259
  18        2PX         0.49248   0.00000   0.00000  -0.55944   0.00000
  19        2PY         0.00000   0.49248  -0.55944   0.00000   0.00000
  20        2PZ         0.00000   0.00000   0.00000   0.00000  -0.24133
  21        3S          0.00000   0.00000   0.00000   0.00000  -3.51632
  22        3PX         0.19650   0.00000   0.00000  -0.44882   0.00000
  23        3PY         0.00000   0.19650  -0.44882   0.00000   0.00000
  24        3PZ         0.00000   0.00000   0.00000   0.00000  -2.33210
  25        4XX         0.00000   0.00000   0.00000   0.00000  -0.01108
  26        4YY         0.00000   0.00000   0.00000   0.00000  -0.01108
  27        4ZZ         0.00000   0.00000   0.00000   0.00000   0.02207
  28        4XY         0.00000   0.00000   0.00000   0.00000   0.00000
  29        4XZ         0.03755   0.00000   0.00000   0.02754   0.00000
  30        4YZ         0.00000   0.03755   0.02754   0.00000   0.00000
                          11        12        13        14        15
                       (SGG)--V  (PIU)--V  (PIU)--V  (SGG)--V  (SGU)--V
     Eigenvalues --     0.23616   0.24875   0.24875   0.27055   0.33951
   1 1   N  1S          0.02597   0.00000   0.00000   0.01302   0.05173
   2        2S          0.50192   0.00000   0.00000  -0.69581   0.19069
   3        2PX         0.00000   0.00000  -0.60608   0.00000   0.00000
   4        2PY         0.00000  -0.60608   0.00000   0.00000   0.00000
   5        2PZ        -0.31412   0.00000   0.00000  -0.37463   0.72075
   6        3S         -0.38037   0.00000   0.00000   1.01247  -0.27595
   7        3PX         0.00000   0.00000   0.64051   0.00000   0.00000
   8        3PY         0.00000   0.64051   0.00000   0.00000   0.00000
   9        3PZ         0.84422   0.00000   0.00000   0.47334  -0.57970
  10        4XX         0.04208   0.00000   0.00000  -0.12064  -0.00796
  11        4YY         0.04208   0.00000   0.00000  -0.12064  -0.00796
  12        4ZZ         0.18206   0.00000   0.00000  -0.15090   0.28444
  13        4XY         0.00000   0.00000   0.00000   0.00000   0.00000
  14        4XZ         0.00000   0.00000   0.07866   0.00000   0.00000
  15        4YZ         0.00000   0.07866   0.00000   0.00000   0.00000
  16 2   N  1S          0.02597   0.00000   0.00000   0.01302  -0.05173
  17        2S          0.50192   0.00000   0.00000  -0.69581  -0.19069
  18        2PX         0.00000   0.00000  -0.60608   0.00000   0.00000
  19        2PY         0.00000  -0.60608   0.00000   0.00000   0.00000
  20        2PZ         0.31412   0.00000   0.00000   0.37463   0.72075
  21        3S         -0.38037   0.00000   0.00000   1.01247   0.27595
  22        3PX         0.00000   0.00000   0.64051   0.00000   0.00000
  23        3PY         0.00000   0.64051   0.00000   0.00000   0.00000
  24        3PZ        -0.84422   0.00000   0.00000  -0.47334  -0.57970
  25        4XX         0.04208   0.00000   0.00000  -0.12064   0.00796
  26        4YY         0.04208   0.00000   0.00000  -0.12064   0.00796
  27        4ZZ         0.18206   0.00000   0.00000  -0.15090  -0.28444
  28        4XY         0.00000   0.00000   0.00000   0.00000   0.00000
  29        4XZ         0.00000   0.00000  -0.07866   0.00000   0.00000
  30        4YZ         0.00000  -0.07866   0.00000   0.00000   0.00000
                          16        17        18        19        20
                       (PIG)--V  (PIG)--V  (SGU)--V  (DLTG)--  (DLTG)--
     Eigenvalues --     0.39443   0.39443   0.88486   1.03744   1.03744
   1 1   N  1S          0.00000   0.00000  -0.02903   0.00000   0.00000
   2        2S          0.00000   0.00000  -1.28197   0.00000   0.00000
   3        2PX        -0.64264   0.00000   0.00000   0.00000   0.00000
   4        2PY         0.00000  -0.64264   0.00000   0.00000   0.00000
   5        2PZ         0.00000   0.00000   0.24859   0.00000   0.00000
   6        3S          0.00000   0.00000   7.04293   0.00000   0.00000
   7        3PX         1.25419   0.00000   0.00000   0.00000   0.00000
   8        3PY         0.00000   1.25419   0.00000   0.00000   0.00000
   9        3PZ         0.00000   0.00000  -3.20101   0.00000   0.00000
  10        4XX         0.00000   0.00000  -0.20285   0.56505   0.00000
  11        4YY         0.00000   0.00000  -0.20285  -0.56505   0.00000
  12        4ZZ         0.00000   0.00000  -0.01649   0.00000   0.00000
  13        4XY         0.00000   0.00000   0.00000   0.00000   0.65246
  14        4XZ        -0.03207   0.00000   0.00000   0.00000   0.00000
  15        4YZ         0.00000  -0.03207   0.00000   0.00000   0.00000
  16 2   N  1S          0.00000   0.00000   0.02903   0.00000   0.00000
  17        2S          0.00000   0.00000   1.28197   0.00000   0.00000
  18        2PX         0.64264   0.00000   0.00000   0.00000   0.00000
  19        2PY         0.00000   0.64264   0.00000   0.00000   0.00000
  20        2PZ         0.00000   0.00000   0.24859   0.00000   0.00000
  21        3S          0.00000   0.00000  -7.04293   0.00000   0.00000
  22        3PX        -1.25419   0.00000   0.00000   0.00000   0.00000
  23        3PY         0.00000  -1.25419   0.00000   0.00000   0.00000
  24        3PZ         0.00000   0.00000  -3.20101   0.00000   0.00000
  25        4XX         0.00000   0.00000   0.20285   0.56505   0.00000
  26        4YY         0.00000   0.00000   0.20285  -0.56505   0.00000
  27        4ZZ         0.00000   0.00000   0.01649   0.00000   0.00000
  28        4XY         0.00000   0.00000   0.00000   0.00000   0.65246
  29        4XZ        -0.03207   0.00000   0.00000   0.00000   0.00000
  30        4YZ         0.00000  -0.03207   0.00000   0.00000   0.00000
                          21        22        23        24        25
                       (PIU)--V  (PIU)--V  (DLTU)--  (DLTU)--  (SGG)--V
     Eigenvalues --     1.09932   1.09932   1.52311   1.52311   1.96636
   1 1   N  1S          0.00000   0.00000   0.00000   0.00000   0.12017
   2        2S          0.00000   0.00000   0.00000   0.00000   0.39647
   3        2PX         0.00000   0.25529   0.00000   0.00000   0.00000
   4        2PY         0.25529   0.00000   0.00000   0.00000   0.00000
   5        2PZ         0.00000   0.00000   0.00000   0.00000  -0.33871
   6        3S          0.00000   0.00000   0.00000   0.00000  -0.53349
   7        3PX         0.00000  -0.05526   0.00000   0.00000   0.00000
   8        3PY        -0.05526   0.00000   0.00000   0.00000   0.00000
   9        3PZ         0.00000   0.00000   0.00000   0.00000   0.58112
  10        4XX         0.00000   0.00000   0.67400   0.00000   0.65452
  11        4YY         0.00000   0.00000  -0.67400   0.00000   0.65452
  12        4ZZ         0.00000   0.00000   0.00000   0.00000  -0.57444
  13        4XY         0.00000   0.00000   0.00000   0.77827   0.00000
  14        4XZ         0.00000   0.59984   0.00000   0.00000   0.00000
  15        4YZ         0.59984   0.00000   0.00000   0.00000   0.00000
  16 2   N  1S          0.00000   0.00000   0.00000   0.00000   0.12017
  17        2S          0.00000   0.00000   0.00000   0.00000   0.39647
  18        2PX         0.00000   0.25529   0.00000   0.00000   0.00000
  19        2PY         0.25529   0.00000   0.00000   0.00000   0.00000
  20        2PZ         0.00000   0.00000   0.00000   0.00000   0.33871
  21        3S          0.00000   0.00000   0.00000   0.00000  -0.53349
  22        3PX         0.00000  -0.05526   0.00000   0.00000   0.00000
  23        3PY        -0.05526   0.00000   0.00000   0.00000   0.00000
  24        3PZ         0.00000   0.00000   0.00000   0.00000  -0.58112
  25        4XX         0.00000   0.00000  -0.67400   0.00000   0.65452
  26        4YY         0.00000   0.00000   0.67400   0.00000   0.65452
  27        4ZZ         0.00000   0.00000   0.00000   0.00000  -0.57444
  28        4XY         0.00000   0.00000   0.00000  -0.77827   0.00000
  29        4XZ         0.00000  -0.59984   0.00000   0.00000   0.00000
  30        4YZ        -0.59984   0.00000   0.00000   0.00000   0.00000
                          26        27        28        29        30
                       (PIG)--V  (PIG)--V  (SGU)--V  (SGG)--V  (SGU)--V
     Eigenvalues --     2.15173   2.15173   2.35274   2.85516   3.15692
   1 1   N  1S          0.00000   0.00000   0.01001  -0.24776  -0.35197
   2        2S          0.00000   0.00000   0.40028   1.25370   0.53073
   3        2PX        -0.23194   0.00000   0.00000   0.00000   0.00000
   4        2PY         0.00000  -0.23194   0.00000   0.00000   0.00000
   5        2PZ         0.00000   0.00000  -1.08698  -0.13954   0.38275
   6        3S          0.00000   0.00000   3.29953   0.84498   4.13437
   7        3PX        -0.50308   0.00000   0.00000   0.00000   0.00000
   8        3PY         0.00000  -0.50308   0.00000   0.00000   0.00000
   9        3PZ         0.00000   0.00000  -1.79209   0.04994  -1.31460
  10        4XX         0.00000   0.00000  -0.47463  -0.81193  -1.09779
  11        4YY         0.00000   0.00000  -0.47463  -0.81193  -1.09779
  12        4ZZ         0.00000   0.00000   1.38242  -1.08409  -1.16342
  13        4XY         0.00000   0.00000   0.00000   0.00000   0.00000
  14        4XZ         1.10826   0.00000   0.00000   0.00000   0.00000
  15        4YZ         0.00000   1.10826   0.00000   0.00000   0.00000
  16 2   N  1S          0.00000   0.00000  -0.01001  -0.24776   0.35197
  17        2S          0.00000   0.00000  -0.40028   1.25370  -0.53073
  18        2PX         0.23194   0.00000   0.00000   0.00000   0.00000
  19        2PY         0.00000   0.23194   0.00000   0.00000   0.00000
  20        2PZ         0.00000   0.00000  -1.08698   0.13954   0.38275
  21        3S          0.00000   0.00000  -3.29953   0.84498  -4.13437
  22        3PX         0.50308   0.00000   0.00000   0.00000   0.00000
  23        3PY         0.00000   0.50308   0.00000   0.00000   0.00000
  24        3PZ         0.00000   0.00000  -1.79209  -0.04994  -1.31460
  25        4XX         0.00000   0.00000   0.47463  -0.81193   1.09779
  26        4YY         0.00000   0.00000   0.47463  -0.81193   1.09779
  27        4ZZ         0.00000   0.00000  -1.38242  -1.08409   1.16342
  28        4XY         0.00000   0.00000   0.00000   0.00000   0.00000
  29        4XZ         1.10826   0.00000   0.00000   0.00000   0.00000
  30        4YZ         0.00000   1.10826   0.00000   0.00000   0.00000
     Beta Molecular Orbital Coefficients:
                           1         2         3         4         5
                       (SGG)--O  (SGU)--O  (SGG)--O  (SGU)--O  (PIU)--O
     Eigenvalues --   -14.93781 -14.93638  -1.55040  -0.92825  -0.87646
   1 1   N  1S          0.70211   0.70225  -0.15963  -0.15640   0.00000
   2        2S          0.02415   0.02383   0.35764   0.37070   0.00000
   3        2PX         0.00000   0.00000   0.00000   0.00000   0.00000
   4        2PY         0.00000   0.00000   0.00000   0.00000   0.48747
   5        2PZ        -0.00102  -0.00174  -0.23327   0.20814   0.00000
   6        3S          0.00177   0.00420   0.17174   0.57648   0.00000
   7        3PX         0.00000   0.00000   0.00000   0.00000   0.00000
   8        3PY         0.00000   0.00000   0.00000   0.00000   0.19948
   9        3PZ         0.00035  -0.00104  -0.03097   0.00566   0.00000
  10        4XX        -0.00539  -0.00570  -0.01226   0.00118   0.00000
  11        4YY        -0.00539  -0.00570  -0.01226   0.00118   0.00000
  12        4ZZ        -0.00567  -0.00436   0.02026  -0.03442   0.00000
  13        4XY         0.00000   0.00000   0.00000   0.00000   0.00000
  14        4XZ         0.00000   0.00000   0.00000   0.00000   0.00000
  15        4YZ         0.00000   0.00000   0.00000   0.00000  -0.04361
  16 2   N  1S          0.70211  -0.70225  -0.15963   0.15640   0.00000
  17        2S          0.02415  -0.02383   0.35764  -0.37070   0.00000
  18        2PX         0.00000   0.00000   0.00000   0.00000   0.00000
  19        2PY         0.00000   0.00000   0.00000   0.00000   0.48747
  20        2PZ         0.00102  -0.00174   0.23327   0.20814   0.00000
  21        3S          0.00177  -0.00420   0.17174  -0.57648   0.00000
  22        3PX         0.00000   0.00000   0.00000   0.00000   0.00000
  23        3PY         0.00000   0.00000   0.00000   0.00000   0.19948
  24        3PZ        -0.00035  -0.00104   0.03097   0.00566   0.00000
  25        4XX        -0.00539   0.00570  -0.01226  -0.00118   0.00000
  26        4YY        -0.00539   0.00570  -0.01226  -0.00118   0.00000
  27        4ZZ        -0.00567   0.00436   0.02026   0.03442   0.00000
  28        4XY         0.00000   0.00000   0.00000   0.00000   0.00000
  29        4XZ         0.00000   0.00000   0.00000   0.00000   0.00000
  30        4YZ         0.00000   0.00000   0.00000   0.00000   0.04361
                           6         7         8         9        10
                       (PIU)--O  (SGG)--V  (PIG)--V  (PIG)--V  (SGU)--V
     Eigenvalues --    -0.87646  -0.72898  -0.42870  -0.42870   0.08494
   1 1   N  1S          0.00000  -0.06157   0.00000   0.00000  -0.09995
   2        2S          0.00000   0.12562   0.00000   0.00000   0.27833
   3        2PX         0.48747   0.00000   0.00000   0.55870   0.00000
   4        2PY         0.00000   0.00000   0.55870   0.00000   0.00000
   5        2PZ         0.00000   0.47083   0.00000   0.00000  -0.22338
   6        3S          0.00000   0.31634   0.00000   0.00000   3.51523
   7        3PX         0.19948   0.00000   0.00000   0.46120   0.00000
   8        3PY         0.00000   0.00000   0.46120   0.00000   0.00000
   9        3PZ         0.00000   0.17392   0.00000   0.00000  -2.36587
  10        4XX         0.00000   0.00638   0.00000   0.00000   0.01085
  11        4YY         0.00000   0.00638   0.00000   0.00000   0.01085
  12        4ZZ         0.00000  -0.02679   0.00000   0.00000  -0.00242
  13        4XY         0.00000   0.00000   0.00000   0.00000   0.00000
  14        4XZ        -0.04361   0.00000   0.00000   0.01452   0.00000
  15        4YZ         0.00000   0.00000   0.01452   0.00000   0.00000
  16 2   N  1S          0.00000  -0.06157   0.00000   0.00000   0.09995
  17        2S          0.00000   0.12562   0.00000   0.00000  -0.27833
  18        2PX         0.48747   0.00000   0.00000  -0.55870   0.00000
  19        2PY         0.00000   0.00000  -0.55870   0.00000   0.00000
  20        2PZ         0.00000  -0.47083   0.00000   0.00000  -0.22338
  21        3S          0.00000   0.31634   0.00000   0.00000  -3.51523
  22        3PX         0.19948   0.00000   0.00000  -0.46120   0.00000
  23        3PY         0.00000   0.00000  -0.46120   0.00000   0.00000
  24        3PZ         0.00000  -0.17392   0.00000   0.00000  -2.36587
  25        4XX         0.00000   0.00638   0.00000   0.00000  -0.01085
  26        4YY         0.00000   0.00638   0.00000   0.00000  -0.01085
  27        4ZZ         0.00000  -0.02679   0.00000   0.00000   0.00242
  28        4XY         0.00000   0.00000   0.00000   0.00000   0.00000
  29        4XZ         0.04361   0.00000   0.00000   0.01452   0.00000
  30        4YZ         0.00000   0.00000   0.01452   0.00000   0.00000
                          11        12        13        14        15
                       (SGG)--V  (PIU)--V  (PIU)--V  (SGG)--V  (PIG)--V
     Eigenvalues --     0.25347   0.25520   0.25520   0.30853   0.40348
   1 1   N  1S          0.02335   0.00000   0.00000   0.01560   0.00000
   2        2S          0.57718   0.00000   0.00000  -0.65162   0.00000
   3        2PX         0.00000   0.00000  -0.60776   0.00000  -0.64608
   4        2PY         0.00000  -0.60776   0.00000   0.00000   0.00000
   5        2PZ        -0.28283   0.00000   0.00000  -0.42062   0.00000
   6        3S         -0.47218   0.00000   0.00000   0.96944   0.00000
   7        3PX         0.00000   0.00000   0.63973   0.00000   1.25068
   8        3PY         0.00000   0.63973   0.00000   0.00000   0.00000
   9        3PZ         0.80442   0.00000   0.00000   0.53552   0.00000
  10        4XX         0.05796   0.00000   0.00000  -0.12779   0.00000
  11        4YY         0.05796   0.00000   0.00000  -0.12779   0.00000
  12        4ZZ         0.18513   0.00000   0.00000  -0.13127   0.00000
  13        4XY         0.00000   0.00000   0.00000   0.00000   0.00000
  14        4XZ         0.00000   0.00000   0.07916   0.00000  -0.02970
  15        4YZ         0.00000   0.07916   0.00000   0.00000   0.00000
  16 2   N  1S          0.02335   0.00000   0.00000   0.01560   0.00000
  17        2S          0.57718   0.00000   0.00000  -0.65162   0.00000
  18        2PX         0.00000   0.00000  -0.60776   0.00000   0.64608
  19        2PY         0.00000  -0.60776   0.00000   0.00000   0.00000
  20        2PZ         0.28283   0.00000   0.00000   0.42062   0.00000
  21        3S         -0.47218   0.00000   0.00000   0.96944   0.00000
  22        3PX         0.00000   0.00000   0.63973   0.00000  -1.25068
  23        3PY         0.00000   0.63973   0.00000   0.00000   0.00000
  24        3PZ        -0.80442   0.00000   0.00000  -0.53552   0.00000
  25        4XX         0.05796   0.00000   0.00000  -0.12779   0.00000
  26        4YY         0.05796   0.00000   0.00000  -0.12779   0.00000
  27        4ZZ         0.18513   0.00000   0.00000  -0.13127   0.00000
  28        4XY         0.00000   0.00000   0.00000   0.00000   0.00000
  29        4XZ         0.00000   0.00000  -0.07916   0.00000  -0.02970
  30        4YZ         0.00000  -0.07916   0.00000   0.00000   0.00000
                          16        17        18        19        20
                       (PIG)--V  (SGU)--V  (SGU)--V  (DLTG)--  (DLTG)--
     Eigenvalues --     0.40348   0.40835   0.89150   1.04617   1.04617
   1 1   N  1S          0.00000   0.05062  -0.02951   0.00000   0.00000
   2        2S          0.00000   0.20106  -1.27859   0.00000   0.00000
   3        2PX         0.00000   0.00000   0.00000   0.00000   0.00000
   4        2PY        -0.64608   0.00000   0.00000   0.00000   0.00000
   5        2PZ         0.00000   0.73732   0.24914   0.00000   0.00000
   6        3S          0.00000  -0.44249   7.05516   0.00000   0.00000
   7        3PX         0.00000   0.00000   0.00000   0.00000   0.00000
   8        3PY         1.25068   0.00000   0.00000   0.00000   0.00000
   9        3PZ         0.00000  -0.46631  -3.20718   0.00000   0.00000
  10        4XX         0.00000  -0.00001  -0.20750   0.56505   0.00000
  11        4YY         0.00000  -0.00001  -0.20750  -0.56505   0.00000
  12        4ZZ         0.00000   0.29148  -0.01207   0.00000   0.00000
  13        4XY         0.00000   0.00000   0.00000   0.00000   0.65246
  14        4XZ         0.00000   0.00000   0.00000   0.00000   0.00000
  15        4YZ        -0.02970   0.00000   0.00000   0.00000   0.00000
  16 2   N  1S          0.00000  -0.05062   0.02951   0.00000   0.00000
  17        2S          0.00000  -0.20106   1.27859   0.00000   0.00000
  18        2PX         0.00000   0.00000   0.00000   0.00000   0.00000
  19        2PY         0.64608   0.00000   0.00000   0.00000   0.00000
  20        2PZ         0.00000   0.73732   0.24914   0.00000   0.00000
  21        3S          0.00000   0.44249  -7.05516   0.00000   0.00000
  22        3PX         0.00000   0.00000   0.00000   0.00000   0.00000
  23        3PY        -1.25068   0.00000   0.00000   0.00000   0.00000
  24        3PZ         0.00000  -0.46631  -3.20718   0.00000   0.00000
  25        4XX         0.00000   0.00001   0.20750   0.56505   0.00000
  26        4YY         0.00000   0.00001   0.20750  -0.56505   0.00000
  27        4ZZ         0.00000  -0.29148   0.01207   0.00000   0.00000
  28        4XY         0.00000   0.00000   0.00000   0.00000   0.65246
  29        4XZ         0.00000   0.00000   0.00000   0.00000   0.00000
  30        4YZ        -0.02970   0.00000   0.00000   0.00000   0.00000
                          21        22        23        24        25
                       (PIU)--V  (PIU)--V  (DLTU)--  (DLTU)--  (SGG)--V
     Eigenvalues --     1.14252   1.14252   1.53590   1.53590   2.01401
   1 1   N  1S          0.00000   0.00000   0.00000   0.00000   0.12248
   2        2S          0.00000   0.00000   0.00000   0.00000   0.37339
   3        2PX         0.00000   0.26084   0.00000   0.00000   0.00000
   4        2PY         0.26084   0.00000   0.00000   0.00000   0.00000
   5        2PZ         0.00000   0.00000   0.00000   0.00000  -0.34348
   6        3S          0.00000   0.00000   0.00000   0.00000  -0.52487
   7        3PX         0.00000  -0.05354   0.00000   0.00000   0.00000
   8        3PY        -0.05354   0.00000   0.00000   0.00000   0.00000
   9        3PZ         0.00000   0.00000   0.00000   0.00000   0.57605
  10        4XX         0.00000   0.00000   0.67400   0.00000   0.65591
  11        4YY         0.00000   0.00000  -0.67400   0.00000   0.65591
  12        4ZZ         0.00000   0.00000   0.00000   0.00000  -0.57354
  13        4XY         0.00000   0.00000   0.00000   0.77827   0.00000
  14        4XZ         0.00000   0.59937   0.00000   0.00000   0.00000
  15        4YZ         0.59937   0.00000   0.00000   0.00000   0.00000
  16 2   N  1S          0.00000   0.00000   0.00000   0.00000   0.12248
  17        2S          0.00000   0.00000   0.00000   0.00000   0.37339
  18        2PX         0.00000   0.26084   0.00000   0.00000   0.00000
  19        2PY         0.26084   0.00000   0.00000   0.00000   0.00000
  20        2PZ         0.00000   0.00000   0.00000   0.00000   0.34348
  21        3S          0.00000   0.00000   0.00000   0.00000  -0.52487
  22        3PX         0.00000  -0.05354   0.00000   0.00000   0.00000
  23        3PY        -0.05354   0.00000   0.00000   0.00000   0.00000
  24        3PZ         0.00000   0.00000   0.00000   0.00000  -0.57605
  25        4XX         0.00000   0.00000  -0.67400   0.00000   0.65591
  26        4YY         0.00000   0.00000   0.67400   0.00000   0.65591
  27        4ZZ         0.00000   0.00000   0.00000   0.00000  -0.57354
  28        4XY         0.00000   0.00000   0.00000  -0.77827   0.00000
  29        4XZ         0.00000  -0.59937   0.00000   0.00000   0.00000
  30        4YZ        -0.59937   0.00000   0.00000   0.00000   0.00000
                          26        27        28        29        30
                       (PIG)--V  (PIG)--V  (SGU)--V  (SGG)--V  (SGU)--V
     Eigenvalues --     2.19447   2.19447   2.41360   2.87997   3.19094
   1 1   N  1S          0.00000   0.00000   0.00227  -0.24719  -0.35209
   2        2S          0.00000   0.00000   0.41806   1.25651   0.52794
   3        2PX        -0.22402   0.00000   0.00000   0.00000   0.00000
   4        2PY         0.00000  -0.22402   0.00000   0.00000   0.00000
   5        2PZ         0.00000   0.00000  -1.07717  -0.13818   0.41055
   6        3S          0.00000   0.00000   3.34636   0.83955   4.05351
   7        3PX        -0.50061   0.00000   0.00000   0.00000   0.00000
   8        3PY         0.00000  -0.50061   0.00000   0.00000   0.00000
   9        3PZ         0.00000   0.00000  -1.79687   0.04715  -1.27735
  10        4XX         0.00000   0.00000  -0.49732  -0.80878  -1.08687
  11        4YY         0.00000   0.00000  -0.49732  -0.80878  -1.08687
  12        4ZZ         0.00000   0.00000   1.35711  -1.08647  -1.19100
  13        4XY         0.00000   0.00000   0.00000   0.00000   0.00000
  14        4XZ         1.10857   0.00000   0.00000   0.00000   0.00000
  15        4YZ         0.00000   1.10857   0.00000   0.00000   0.00000
  16 2   N  1S          0.00000   0.00000  -0.00227  -0.24719   0.35209
  17        2S          0.00000   0.00000  -0.41806   1.25651  -0.52794
  18        2PX         0.22402   0.00000   0.00000   0.00000   0.00000
  19        2PY         0.00000   0.22402   0.00000   0.00000   0.00000
  20        2PZ         0.00000   0.00000  -1.07717   0.13818   0.41055
  21        3S          0.00000   0.00000  -3.34636   0.83955  -4.05351
  22        3PX         0.50061   0.00000   0.00000   0.00000   0.00000
  23        3PY         0.00000   0.50061   0.00000   0.00000   0.00000
  24        3PZ         0.00000   0.00000  -1.79687  -0.04715  -1.27735
  25        4XX         0.00000   0.00000   0.49732  -0.80878   1.08687
  26        4YY         0.00000   0.00000   0.49732  -0.80878   1.08687
  27        4ZZ         0.00000   0.00000  -1.35711  -1.08647   1.19100
  28        4XY         0.00000   0.00000   0.00000   0.00000   0.00000
  29        4XZ         1.10857   0.00000   0.00000   0.00000   0.00000
  30        4YZ         0.00000   1.10857   0.00000   0.00000   0.00000
     Alpha Density Matrix:
                           1         2         3         4         5
   1 1   N  1S          1.03870
   2        2S         -0.09082   0.29782
   3        2PX         0.00000   0.00000   0.24253
   4        2PY         0.00000   0.00000   0.00000   0.24253
   5        2PZ        -0.03293   0.08335   0.00000   0.00000   0.35712
   6        3S         -0.11790   0.29789   0.00000   0.00000   0.22251
   7        3PX         0.00000   0.00000   0.09677   0.00000   0.00000
   8        3PY         0.00000   0.00000   0.00000   0.09677   0.00000
   9        3PZ        -0.00869   0.01897   0.00000   0.00000   0.08216
  10        4XX        -0.00548  -0.00711   0.00000   0.00000   0.00483
  11        4YY        -0.00548  -0.00711   0.00000   0.00000   0.00483
  12        4ZZ        -0.00807   0.00137   0.00000   0.00000  -0.01634
  13        4XY         0.00000   0.00000   0.00000   0.00000   0.00000
  14        4XZ         0.00000   0.00000  -0.01849   0.00000   0.00000
  15        4YZ         0.00000   0.00000   0.00000  -0.01849   0.00000
  16 2   N  1S          0.00621  -0.01004   0.00000   0.00000   0.04417
  17        2S         -0.01004   0.01261   0.00000   0.00000  -0.10158
  18        2PX         0.00000   0.00000   0.24253   0.00000   0.00000
  19        2PY         0.00000   0.00000   0.00000   0.24253   0.00000
  20        2PZ        -0.04417   0.10158   0.00000   0.00000  -0.23661
  21        3S          0.03147  -0.09099   0.00000   0.00000  -0.03059
  22        3PX         0.00000   0.00000   0.09677   0.00000   0.00000
  23        3PY         0.00000   0.00000   0.00000   0.09677   0.00000
  24        3PZ         0.00138  -0.00716   0.00000   0.00000  -0.07440
  25        4XX         0.00161  -0.00284   0.00000   0.00000   0.00740
  26        4YY         0.00161  -0.00284   0.00000   0.00000   0.00740
  27        4ZZ        -0.00653   0.01327   0.00000   0.00000  -0.00874
  28        4XY         0.00000   0.00000   0.00000   0.00000   0.00000
  29        4XZ         0.00000   0.00000   0.01849   0.00000   0.00000
  30        4YZ         0.00000   0.00000   0.00000   0.01849   0.00000
                           6         7         8         9        10
   6        3S          0.37018
   7        3PX         0.00000   0.03861
   8        3PY         0.00000   0.00000   0.03861
   9        3PZ         0.04409   0.00000   0.00000   0.02244
  10        4XX        -0.00399   0.00000   0.00000   0.00107   0.00037
  11        4YY        -0.00399   0.00000   0.00000   0.00107   0.00037
  12        4ZZ        -0.00721   0.00000   0.00000  -0.00284  -0.00033
  13        4XY         0.00000   0.00000   0.00000   0.00000   0.00000
  14        4XZ         0.00000  -0.00738   0.00000   0.00000   0.00000
  15        4YZ         0.00000   0.00000  -0.00738   0.00000   0.00000
  16 2   N  1S          0.03147   0.00000   0.00000  -0.00138   0.00161
  17        2S         -0.09099   0.00000   0.00000   0.00716  -0.00284
  18        2PX         0.00000   0.09677   0.00000   0.00000   0.00000
  19        2PY         0.00000   0.00000   0.09677   0.00000   0.00000
  20        2PZ         0.03059   0.00000   0.00000  -0.07440  -0.00740
  21        3S         -0.16157   0.00000   0.00000   0.02783   0.00152
  22        3PX         0.00000   0.03861   0.00000   0.00000   0.00000
  23        3PY         0.00000   0.00000   0.03861   0.00000   0.00000
  24        3PZ        -0.02783   0.00000   0.00000  -0.02194  -0.00122
  25        4XX         0.00152   0.00000   0.00000   0.00122   0.00023
  26        4YY         0.00152   0.00000   0.00000   0.00122   0.00023
  27        4ZZ         0.00883   0.00000   0.00000  -0.00236  -0.00055
  28        4XY         0.00000   0.00000   0.00000   0.00000   0.00000
  29        4XZ         0.00000   0.00738   0.00000   0.00000   0.00000
  30        4YZ         0.00000   0.00000   0.00738   0.00000   0.00000
                          11        12        13        14        15
  11        4YY         0.00037
  12        4ZZ        -0.00033   0.00115
  13        4XY         0.00000   0.00000   0.00000
  14        4XZ         0.00000   0.00000   0.00000   0.00141
  15        4YZ         0.00000   0.00000   0.00000   0.00000   0.00141
  16 2   N  1S          0.00161  -0.00653   0.00000   0.00000   0.00000
  17        2S         -0.00284   0.01327   0.00000   0.00000   0.00000
  18        2PX         0.00000   0.00000   0.00000  -0.01849   0.00000
  19        2PY         0.00000   0.00000   0.00000   0.00000  -0.01849
  20        2PZ        -0.00740   0.00874   0.00000   0.00000   0.00000
  21        3S          0.00152   0.00883   0.00000   0.00000   0.00000
  22        3PX         0.00000   0.00000   0.00000  -0.00738   0.00000
  23        3PY         0.00000   0.00000   0.00000   0.00000  -0.00738
  24        3PZ        -0.00122   0.00236   0.00000   0.00000   0.00000
  25        4XX         0.00023  -0.00055   0.00000   0.00000   0.00000
  26        4YY         0.00023  -0.00055   0.00000   0.00000   0.00000
  27        4ZZ        -0.00055   0.00063   0.00000   0.00000   0.00000
  28        4XY         0.00000   0.00000   0.00000   0.00000   0.00000
  29        4XZ         0.00000   0.00000   0.00000  -0.00141   0.00000
  30        4YZ         0.00000   0.00000   0.00000   0.00000  -0.00141
                          16        17        18        19        20
  16 2   N  1S          1.03870
  17        2S         -0.09082   0.29782
  18        2PX         0.00000   0.00000   0.24253
  19        2PY         0.00000   0.00000   0.00000   0.24253
  20        2PZ         0.03293  -0.08335   0.00000   0.00000   0.35712
  21        3S         -0.11790   0.29789   0.00000   0.00000  -0.22251
  22        3PX         0.00000   0.00000   0.09677   0.00000   0.00000
  23        3PY         0.00000   0.00000   0.00000   0.09677   0.00000
  24        3PZ         0.00869  -0.01897   0.00000   0.00000   0.08216
  25        4XX        -0.00548  -0.00711   0.00000   0.00000  -0.00483
  26        4YY        -0.00548  -0.00711   0.00000   0.00000  -0.00483
  27        4ZZ        -0.00807   0.00137   0.00000   0.00000   0.01634
  28        4XY         0.00000   0.00000   0.00000   0.00000   0.00000
  29        4XZ         0.00000   0.00000   0.01849   0.00000   0.00000
  30        4YZ         0.00000   0.00000   0.00000   0.01849   0.00000
                          21        22        23        24        25
  21        3S          0.37018
  22        3PX         0.00000   0.03861
  23        3PY         0.00000   0.00000   0.03861
  24        3PZ        -0.04409   0.00000   0.00000   0.02244
  25        4XX        -0.00399   0.00000   0.00000  -0.00107   0.00037
  26        4YY        -0.00399   0.00000   0.00000  -0.00107   0.00037
  27        4ZZ        -0.00721   0.00000   0.00000   0.00284  -0.00033
  28        4XY         0.00000   0.00000   0.00000   0.00000   0.00000
  29        4XZ         0.00000   0.00738   0.00000   0.00000   0.00000
  30        4YZ         0.00000   0.00000   0.00738   0.00000   0.00000
                          26        27        28        29        30
  26        4YY         0.00037
  27        4ZZ        -0.00033   0.00115
  28        4XY         0.00000   0.00000   0.00000
  29        4XZ         0.00000   0.00000   0.00000   0.00141
  30        4YZ         0.00000   0.00000   0.00000   0.00000   0.00141
     Beta Density Matrix:
                           1         2         3         4         5
   1 1   N  1S          1.03605
   2        2S         -0.08138   0.26648
   3        2PX         0.00000   0.00000   0.23763
   4        2PY         0.00000   0.00000   0.00000   0.23763
   5        2PZ         0.00275  -0.00634   0.00000   0.00000   0.09774
   6        3S         -0.11338   0.27527   0.00000   0.00000   0.07992
   7        3PX         0.00000   0.00000   0.09724   0.00000   0.00000
   8        3PY         0.00000   0.00000   0.00000   0.09724   0.00000
   9        3PZ         0.00357  -0.00899   0.00000   0.00000   0.00841
  10        4XX        -0.00601  -0.00422   0.00000   0.00000   0.00312
  11        4YY        -0.00601  -0.00422   0.00000   0.00000   0.00312
  12        4ZZ        -0.00490  -0.00575   0.00000   0.00000  -0.01188
  13        4XY         0.00000   0.00000   0.00000   0.00000   0.00000
  14        4XZ         0.00000   0.00000  -0.02126   0.00000   0.00000
  15        4YZ         0.00000   0.00000   0.00000  -0.02126   0.00000
  16 2   N  1S          0.00083   0.00111   0.00000   0.00000   0.07029
  17        2S          0.00111  -0.00950   0.00000   0.00000  -0.16057
  18        2PX         0.00000   0.00000   0.23763   0.00000   0.00000
  19        2PY         0.00000   0.00000   0.00000   0.23763   0.00000
  20        2PZ        -0.07029   0.16057   0.00000   0.00000  -0.01109
  21        3S          0.06103  -0.15234   0.00000   0.00000  -0.16004
  22        3PX         0.00000   0.00000   0.09724   0.00000   0.00000
  23        3PY         0.00000   0.00000   0.00000   0.09724   0.00000
  24        3PZ        -0.00681   0.01314   0.00000   0.00000  -0.00604
  25        4XX         0.00236  -0.00482   0.00000   0.00000   0.00261
  26        4YY         0.00236  -0.00482   0.00000   0.00000   0.00261
  27        4ZZ        -0.00954   0.01997   0.00000   0.00000   0.00244
  28        4XY         0.00000   0.00000   0.00000   0.00000   0.00000
  29        4XZ         0.00000   0.00000   0.02126   0.00000   0.00000
  30        4YZ         0.00000   0.00000   0.00000   0.02126   0.00000
                           6         7         8         9        10
   6        3S          0.36184
   7        3PX         0.00000   0.03979
   8        3PY         0.00000   0.00000   0.03979
   9        3PZ        -0.00206   0.00000   0.00000   0.00099
  10        4XX        -0.00146   0.00000   0.00000   0.00039   0.00021
  11        4YY        -0.00146   0.00000   0.00000   0.00039   0.00021
  12        4ZZ        -0.01639   0.00000   0.00000  -0.00082  -0.00023
  13        4XY         0.00000   0.00000   0.00000   0.00000   0.00000
  14        4XZ         0.00000  -0.00870   0.00000   0.00000   0.00000
  15        4YZ         0.00000   0.00000  -0.00870   0.00000   0.00000
  16 2   N  1S          0.06103   0.00000   0.00000   0.00681   0.00236
  17        2S         -0.15234   0.00000   0.00000  -0.01314  -0.00482
  18        2PX         0.00000   0.09724   0.00000   0.00000   0.00000
  19        2PY         0.00000   0.00000   0.09724   0.00000   0.00000
  20        2PZ         0.16004   0.00000   0.00000  -0.00604  -0.00261
  21        3S         -0.30284   0.00000   0.00000  -0.00858  -0.00277
  22        3PX         0.00000   0.03979   0.00000   0.00000   0.00000
  23        3PY         0.00000   0.00000   0.03979   0.00000   0.00000
  24        3PZ         0.00858   0.00000   0.00000  -0.00093  -0.00037
  25        4XX        -0.00277   0.00000   0.00000   0.00037   0.00015
  26        4YY        -0.00277   0.00000   0.00000   0.00037   0.00015
  27        4ZZ         0.02333   0.00000   0.00000  -0.00044  -0.00020
  28        4XY         0.00000   0.00000   0.00000   0.00000   0.00000
  29        4XZ         0.00000   0.00870   0.00000   0.00000   0.00000
  30        4YZ         0.00000   0.00000   0.00870   0.00000   0.00000
                          11        12        13        14        15
  11        4YY         0.00021
  12        4ZZ        -0.00023   0.00165
  13        4XY         0.00000   0.00000   0.00000
  14        4XZ         0.00000   0.00000   0.00000   0.00190
  15        4YZ         0.00000   0.00000   0.00000   0.00000   0.00190
  16 2   N  1S          0.00236  -0.00954   0.00000   0.00000   0.00000
  17        2S         -0.00482   0.01997   0.00000   0.00000   0.00000
  18        2PX         0.00000   0.00000   0.00000  -0.02126   0.00000
  19        2PY         0.00000   0.00000   0.00000   0.00000  -0.02126
  20        2PZ        -0.00261  -0.00244   0.00000   0.00000   0.00000
  21        3S         -0.00277   0.02333   0.00000   0.00000   0.00000
  22        3PX         0.00000   0.00000   0.00000  -0.00870   0.00000
  23        3PY         0.00000   0.00000   0.00000   0.00000  -0.00870
  24        3PZ        -0.00037   0.00044   0.00000   0.00000   0.00000
  25        4XX         0.00015  -0.00020   0.00000   0.00000   0.00000
  26        4YY         0.00015  -0.00020   0.00000   0.00000   0.00000
  27        4ZZ        -0.00020  -0.00076   0.00000   0.00000   0.00000
  28        4XY         0.00000   0.00000   0.00000   0.00000   0.00000
  29        4XZ         0.00000   0.00000   0.00000  -0.00190   0.00000
  30        4YZ         0.00000   0.00000   0.00000   0.00000  -0.00190
                          16        17        18        19        20
  16 2   N  1S          1.03605
  17        2S         -0.08138   0.26648
  18        2PX         0.00000   0.00000   0.23763
  19        2PY         0.00000   0.00000   0.00000   0.23763
  20        2PZ        -0.00275   0.00634   0.00000   0.00000   0.09774
  21        3S         -0.11338   0.27527   0.00000   0.00000  -0.07992
  22        3PX         0.00000   0.00000   0.09724   0.00000   0.00000
  23        3PY         0.00000   0.00000   0.00000   0.09724   0.00000
  24        3PZ        -0.00357   0.00899   0.00000   0.00000   0.00841
  25        4XX        -0.00601  -0.00422   0.00000   0.00000  -0.00312
  26        4YY        -0.00601  -0.00422   0.00000   0.00000  -0.00312
  27        4ZZ        -0.00490  -0.00575   0.00000   0.00000   0.01188
  28        4XY         0.00000   0.00000   0.00000   0.00000   0.00000
  29        4XZ         0.00000   0.00000   0.02126   0.00000   0.00000
  30        4YZ         0.00000   0.00000   0.00000   0.02126   0.00000
                          21        22        23        24        25
  21        3S          0.36184
  22        3PX         0.00000   0.03979
  23        3PY         0.00000   0.00000   0.03979
  24        3PZ         0.00206   0.00000   0.00000   0.00099
  25        4XX        -0.00146   0.00000   0.00000  -0.00039   0.00021
  26        4YY        -0.00146   0.00000   0.00000  -0.00039   0.00021
  27        4ZZ        -0.01639   0.00000   0.00000   0.00082  -0.00023
  28        4XY         0.00000   0.00000   0.00000   0.00000   0.00000
  29        4XZ         0.00000   0.00870   0.00000   0.00000   0.00000
  30        4YZ         0.00000   0.00000   0.00870   0.00000   0.00000
                          26        27        28        29        30
  26        4YY         0.00021
  27        4ZZ        -0.00023   0.00165
  28        4XY         0.00000   0.00000   0.00000
  29        4XZ         0.00000   0.00000   0.00000   0.00190
  30        4YZ         0.00000   0.00000   0.00000   0.00000   0.00190
    Full Mulliken population analysis:
                           1         2         3         4         5
   1 1   N  1S          2.07476
   2        2S         -0.03826   0.56430
   3        2PX         0.00000   0.00000   0.48016
   4        2PY         0.00000   0.00000   0.00000   0.48016
   5        2PZ         0.00000   0.00000   0.00000   0.00000   0.45486
   6        3S         -0.03975   0.44449   0.00000   0.00000   0.00000
   7        3PX         0.00000   0.00000   0.10075   0.00000   0.00000
   8        3PY         0.00000   0.00000   0.00000   0.10075   0.00000
   9        3PZ         0.00000   0.00000   0.00000   0.00000   0.04703
  10        4XX        -0.00058  -0.00721   0.00000   0.00000   0.00000
  11        4YY        -0.00058  -0.00721   0.00000   0.00000   0.00000
  12        4ZZ        -0.00065  -0.00279   0.00000   0.00000   0.00000
  13        4XY         0.00000   0.00000   0.00000   0.00000   0.00000
  14        4XZ         0.00000   0.00000   0.00000   0.00000   0.00000
  15        4YZ         0.00000   0.00000   0.00000   0.00000   0.00000
  16 2   N  1S          0.00000  -0.00020   0.00000   0.00000  -0.00553
  17        2S         -0.00020   0.00068   0.00000   0.00000   0.07777
  18        2PX         0.00000   0.00000   0.05984   0.00000   0.00000
  19        2PY         0.00000   0.00000   0.00000   0.05984   0.00000
  20        2PZ        -0.00553   0.07777   0.00000   0.00000   0.08443
  21        3S          0.00649  -0.09253   0.00000   0.00000   0.04535
  22        3PX         0.00000   0.00000   0.04798   0.00000   0.00000
  23        3PY         0.00000   0.00000   0.00000   0.04798   0.00000
  24        3PZ        -0.00071   0.00338   0.00000   0.00000   0.00959
  25        4XX         0.00001  -0.00091   0.00000   0.00000  -0.00153
  26        4YY         0.00001  -0.00091   0.00000   0.00000  -0.00153
  27        4ZZ        -0.00191   0.01553   0.00000   0.00000   0.00277
  28        4XY         0.00000   0.00000   0.00000   0.00000   0.00000
  29        4XZ         0.00000   0.00000   0.01140   0.00000   0.00000
  30        4YZ         0.00000   0.00000   0.00000   0.01140   0.00000
                           6         7         8         9        10
   6        3S          0.73202
   7        3PX         0.00000   0.07840
   8        3PY         0.00000   0.00000   0.07840
   9        3PZ         0.00000   0.00000   0.00000   0.02344
  10        4XX        -0.00365   0.00000   0.00000   0.00000   0.00058
  11        4YY        -0.00365   0.00000   0.00000   0.00000   0.00019
  12        4ZZ        -0.01582   0.00000   0.00000   0.00000  -0.00019
  13        4XY         0.00000   0.00000   0.00000   0.00000   0.00000
  14        4XZ         0.00000   0.00000   0.00000   0.00000   0.00000
  15        4YZ         0.00000   0.00000   0.00000   0.00000   0.00000
  16 2   N  1S          0.00649   0.00000   0.00000  -0.00071   0.00001
  17        2S         -0.09253   0.00000   0.00000   0.00338  -0.00091
  18        2PX         0.00000   0.04798   0.00000   0.00000   0.00000
  19        2PY         0.00000   0.00000   0.04798   0.00000   0.00000
  20        2PZ         0.04535   0.00000   0.00000   0.00959  -0.00153
  21        3S         -0.29239   0.00000   0.00000  -0.01166  -0.00041
  22        3PX         0.00000   0.04936   0.00000   0.00000   0.00000
  23        3PY         0.00000   0.00000   0.04936   0.00000   0.00000
  24        3PZ        -0.01166   0.00000   0.00000  -0.00107  -0.00078
  25        4XX        -0.00041   0.00000   0.00000  -0.00078   0.00007
  26        4YY        -0.00041   0.00000   0.00000  -0.00078   0.00002
  27        4ZZ         0.01439   0.00000   0.00000   0.00118  -0.00020
  28        4XY         0.00000   0.00000   0.00000   0.00000   0.00000
  29        4XZ         0.00000   0.00362   0.00000   0.00000   0.00000
  30        4YZ         0.00000   0.00000   0.00362   0.00000   0.00000
                          11        12        13        14        15
  11        4YY         0.00058
  12        4ZZ        -0.00019   0.00279
  13        4XY         0.00000   0.00000   0.00000
  14        4XZ         0.00000   0.00000   0.00000   0.00331
  15        4YZ         0.00000   0.00000   0.00000   0.00000   0.00331
  16 2   N  1S          0.00001  -0.00191   0.00000   0.00000   0.00000
  17        2S         -0.00091   0.01553   0.00000   0.00000   0.00000
  18        2PX         0.00000   0.00000   0.00000   0.01140   0.00000
  19        2PY         0.00000   0.00000   0.00000   0.00000   0.01140
  20        2PZ        -0.00153   0.00277   0.00000   0.00000   0.00000
  21        3S         -0.00041   0.01439   0.00000   0.00000   0.00000
  22        3PX         0.00000   0.00000   0.00000   0.00362   0.00000
  23        3PY         0.00000   0.00000   0.00000   0.00000   0.00362
  24        3PZ        -0.00078   0.00118   0.00000   0.00000   0.00000
  25        4XX         0.00002  -0.00020   0.00000   0.00000   0.00000
  26        4YY         0.00007  -0.00020   0.00000   0.00000   0.00000
  27        4ZZ        -0.00020  -0.00006   0.00000   0.00000   0.00000
  28        4XY         0.00000   0.00000   0.00000   0.00000   0.00000
  29        4XZ         0.00000   0.00000   0.00000   0.00144   0.00000
  30        4YZ         0.00000   0.00000   0.00000   0.00000   0.00144
                          16        17        18        19        20
  16 2   N  1S          2.07476
  17        2S         -0.03826   0.56430
  18        2PX         0.00000   0.00000   0.48016
  19        2PY         0.00000   0.00000   0.00000   0.48016
  20        2PZ         0.00000   0.00000   0.00000   0.00000   0.45486
  21        3S         -0.03975   0.44449   0.00000   0.00000   0.00000
  22        3PX         0.00000   0.00000   0.10075   0.00000   0.00000
  23        3PY         0.00000   0.00000   0.00000   0.10075   0.00000
  24        3PZ         0.00000   0.00000   0.00000   0.00000   0.04703
  25        4XX        -0.00058  -0.00721   0.00000   0.00000   0.00000
  26        4YY        -0.00058  -0.00721   0.00000   0.00000   0.00000
  27        4ZZ        -0.00065  -0.00279   0.00000   0.00000   0.00000
  28        4XY         0.00000   0.00000   0.00000   0.00000   0.00000
  29        4XZ         0.00000   0.00000   0.00000   0.00000   0.00000
  30        4YZ         0.00000   0.00000   0.00000   0.00000   0.00000
                          21        22        23        24        25
  21        3S          0.73202
  22        3PX         0.00000   0.07840
  23        3PY         0.00000   0.00000   0.07840
  24        3PZ         0.00000   0.00000   0.00000   0.02344
  25        4XX        -0.00365   0.00000   0.00000   0.00000   0.00058
  26        4YY        -0.00365   0.00000   0.00000   0.00000   0.00019
  27        4ZZ        -0.01582   0.00000   0.00000   0.00000  -0.00019
  28        4XY         0.00000   0.00000   0.00000   0.00000   0.00000
  29        4XZ         0.00000   0.00000   0.00000   0.00000   0.00000
  30        4YZ         0.00000   0.00000   0.00000   0.00000   0.00000
                          26        27        28        29        30
  26        4YY         0.00058
  27        4ZZ        -0.00019   0.00279
  28        4XY         0.00000   0.00000   0.00000
  29        4XZ         0.00000   0.00000   0.00000   0.00331
  30        4YZ         0.00000   0.00000   0.00000   0.00000   0.00331
     Gross orbital populations:
                         Total     Alpha     Beta      Spin
   1 1   N  1S          1.99309   0.99655   0.99653   0.00002
   2        2S          0.95613   0.50003   0.45610   0.04393
   3        2PX         0.70012   0.35224   0.34787   0.00437
   4        2PY         0.70012   0.35224   0.34787   0.00437
   5        2PZ         0.71319   0.52615   0.18704   0.33911
   6        3S          0.78248   0.43199   0.35049   0.08150
   7        3PX         0.28011   0.13877   0.14134  -0.00257
   8        3PY         0.28011   0.13877   0.14134  -0.00257
   9        3PZ         0.06961   0.05203   0.01758   0.03445
  10        4XX        -0.01458  -0.00876  -0.00581  -0.00295
  11        4YY        -0.01458  -0.00876  -0.00581  -0.00295
  12        4ZZ         0.01465   0.01077   0.00388   0.00689
  13        4XY         0.00000   0.00000   0.00000   0.00000
  14        4XZ         0.01977   0.00899   0.01078  -0.00180
  15        4YZ         0.01977   0.00899   0.01078  -0.00180
  16 2   N  1S          1.99309   0.99655   0.99653   0.00002
  17        2S          0.95613   0.50003   0.45610   0.04393
  18        2PX         0.70012   0.35224   0.34787   0.00437
  19        2PY         0.70012   0.35224   0.34787   0.00437
  20        2PZ         0.71319   0.52615   0.18704   0.33911
  21        3S          0.78248   0.43199   0.35049   0.08150
  22        3PX         0.28011   0.13877   0.14134  -0.00257
  23        3PY         0.28011   0.13877   0.14134  -0.00257
  24        3PZ         0.06961   0.05203   0.01758   0.03445
  25        4XX        -0.01458  -0.00876  -0.00581  -0.00295
  26        4YY        -0.01458  -0.00876  -0.00581  -0.00295
  27        4ZZ         0.01465   0.01077   0.00388   0.00689
  28        4XY         0.00000   0.00000   0.00000   0.00000
  29        4XZ         0.01977   0.00899   0.01078  -0.00180
  30        4YZ         0.01977   0.00899   0.01078  -0.00180
          Condensed to atoms (all electrons):
               1          2
     1  N    6.122431   0.377569
     2  N    0.377569   6.122431
          Atomic-Atomic Spin Densities.
               1          2
     1  N    0.441400   0.058600
     2  N    0.058600   0.441400
 Mulliken charges and spin densities:
               1          2
     1  N    0.500000   0.500000
     2  N    0.500000   0.500000
 Sum of Mulliken charges =   1.00000   1.00000
 Mulliken charges and spin densities with hydrogens summed into heavy atoms:
               1          2
     1  N    0.500000   0.500000
     2  N    0.500000   0.500000
 Atomic Valencies and Mayer Atomic Bond Orders:
               1          2
     1  N    2.749432   2.749432
     2  N    2.749432   2.749432
 Lowdin Atomic Charges:
               1
     1  N    0.500000
     2  N    0.500000
 Sum of Lowdin charges  =   1.00000
 Lowdin atomic charges with hydrogens summed into heavy atoms:
               1
     1  N    0.500000
     2  N    0.500000
 Sum of Lowdin charges  =   1.00000
 Dipole moment from Lowdin charges (Debye):
    X=     0.0000    Y=     0.0000    Z=     0.0000  Tot=     0.0000
 Electronic spatial extent (au):  <R**2>=             32.1494
 Charge=              1.0000 electrons
 Dipole moment (field-independent basis, Debye):
    X=              0.0000    Y=              0.0000    Z=              0.0000  Tot=              0.0000
 Quadrupole moment (field-independent basis, Debye-Ang):
   XX=             -8.3802   YY=             -8.3802   ZZ=             -5.9362
   XY=              0.0000   XZ=              0.0000   YZ=              0.0000
 Traceless Quadrupole moment (field-independent basis, Debye-Ang):
   XX=             -0.8147   YY=             -0.8147   ZZ=              1.6293
   XY=              0.0000   XZ=              0.0000   YZ=              0.0000
 Octapole moment (field-independent basis, Debye-Ang**2):
  XXX=              0.0000  YYY=              0.0000  ZZZ=              0.0000  XYY=              0.0000
  XXY=              0.0000  XXZ=              0.0000  XZZ=              0.0000  YZZ=              0.0000
  YYZ=              0.0000  XYZ=              0.0000
 Hexadecapole moment (field-independent basis, Debye-Ang**3):
 XXXX=             -6.0630 YYYY=             -6.0630 ZZZZ=            -19.2850 XXXY=              0.0000
 XXXZ=              0.0000 YYYX=              0.0000 YYYZ=              0.0000 ZZZX=              0.0000
 ZZZY=              0.0000 XXYY=             -2.0210 XXZZ=             -4.3581 YYZZ=             -4.3581
 XXYZ=              0.0000 YYXZ=              0.0000 ZZXY=              0.0000
 N-N= 2.345516347436D+01 E-N=-2.956884478532D+02  KE= 1.078852324058D+02
 Symmetry AG   KE= 5.137428943496D+01
 Symmetry B1G  KE= 1.417564799810D-34
 Symmetry B2G  KE= 1.778939564247D-32
 Symmetry B3G  KE=-2.915345998877D-34
 Symmetry AU   KE= 4.717677191248D-34
 Symmetry B1U  KE= 4.901748456708D+01
 Symmetry B2U  KE= 3.746729201904D+00
 Symmetry B3U  KE= 3.746729201905D+00
 Orbital energies and kinetic energies (alpha):
                                 1                 2
   1 (SGG)--O                -14.950257         21.952080
   2 (SGU)--O                -14.948562         21.967618
   3 (SGG)--O                 -1.578488          2.621995
   4 (SGU)--O                 -1.019744          2.552860
   5 (SGG)--O                 -0.908423          2.246438
   6 (PIU)--O                 -0.890145          1.882932
   7 (PIU)--O                 -0.890145          1.882932
   8 (PIG)--V                 -0.452502          2.360947
   9 (PIG)--V                 -0.452502          2.360947
  10 (SGU)--V                  0.066933          2.017228
  11 (SGG)--V                  0.236163          1.444914
  12 (PIU)--V                  0.248750          2.165573
  13 (PIU)--V                  0.248750          2.165573
  14 (SGG)--V                  0.270550          1.934772
  15 (SGU)--V                  0.339508          3.358368
  16 (PIG)--V                  0.394432          2.404024
  17 (PIG)--V                  0.394432          2.404024
  18 (SGU)--V                  0.884864          2.669072
  19 (DLTG)--V                 1.037444          2.592486
  20 (DLTG)--V                 1.037444          2.592486
  21 (PIU)--V                  1.099318          2.984724
  22 (PIU)--V                  1.099318          2.984724
  23 (DLTU)--V                 1.523109          3.095257
  24 (DLTU)--V                 1.523110          3.095257
  25 (SGG)--V                  1.966355          4.009403
  26 (PIG)--V                  2.151735          3.919723
  27 (PIG)--V                  2.151735          3.919723
  28 (SGU)--V                  2.352741          5.806742
  29 (SGG)--V                  2.855162          8.471074
  30 (SGU)--V                  3.156916          9.502785
 Orbital energies and kinetic energies (beta):
                                 1                 2
   1 (SGG)--O                -14.937814         21.966770
   2 (SGU)--O                -14.936381         21.982457
   3 (SGG)--O                 -1.550403          2.587006
   4 (SGU)--O                 -0.928255          2.514550
   5 (PIU)--O                 -0.876457          1.863798
   6 (PIU)--O                 -0.876457          1.863798
   7 (SGG)--V                 -0.728976          2.107738
   8 (PIG)--V                 -0.428699          2.351672
   9 (PIG)--V                 -0.428699          2.351672
  10 (SGU)--V                  0.084940          1.870460
  11 (SGG)--V                  0.253469          1.446616
  12 (PIU)--V                  0.255199          2.176658
  13 (PIU)--V                  0.255199          2.176658
  14 (SGG)--V                  0.308532          2.055233
  15 (PIG)--V                  0.403482          2.424243
  16 (PIG)--V                  0.403482          2.424243
  17 (SGU)--V                  0.408352          3.503024
  18 (SGU)--V                  0.891496          2.666968
  19 (DLTG)--V                 1.046170          2.592486
  20 (DLTG)--V                 1.046170          2.592486
  21 (PIU)--V                  1.142518          2.992773
  22 (PIU)--V                  1.142518          2.992773
  23 (DLTU)--V                 1.535903          3.095257
  24 (DLTU)--V                 1.535903          3.095257
  25 (SGG)--V                  2.014010          4.048355
  26 (PIG)--V                  2.194472          3.908780
  27 (PIG)--V                  2.194472          3.908780
  28 (SGU)--V                  2.413602          5.800422
  29 (SGG)--V                  2.879969          8.468957
  30 (SGU)--V                  3.190941          9.536792
 Total kinetic energy from orbitals= 1.078852324058D+02
                          Isotropic Fermi Contact Couplings
        Atom                 a.u.       MegaHertz       Gauss      10(-4) cm-1
     1  N(14)              0.25166      81.31239      29.01428      27.12289
     2  N(14)              0.25166      81.31239      29.01428      27.12289
 --------------------------------------------------------
       Center         ----  Spin Dipole Couplings  ----
                      3XX-RR        3YY-RR        3ZZ-RR
 --------------------------------------------------------
     1   Atom       -0.673628     -0.673628      1.347256
     2   Atom       -0.673628     -0.673628      1.347256
 --------------------------------------------------------
                        XY            XZ            YZ
 --------------------------------------------------------
     1   Atom        0.000000      0.000000      0.000000
     2   Atom        0.000000      0.000000      0.000000
 --------------------------------------------------------


 ---------------------------------------------------------------------------------
              Anisotropic Spin Dipole Couplings in Principal Axis System
 ---------------------------------------------------------------------------------

       Atom             a.u.   MegaHertz   Gauss  10(-4) cm-1        Axes

              Baa    -0.6736   -25.980    -9.270    -8.666  1.0000  0.0000  0.0000
     1 N(14)  Bbb    -0.6736   -25.980    -9.270    -8.666  0.0000  1.0000  0.0000
              Bcc     1.3473    51.961    18.541    17.332  0.0000  0.0000  1.0000
 
              Baa    -0.6736   -25.980    -9.270    -8.666  0.9732  0.2298  0.0000
     2 N(14)  Bbb    -0.6736   -25.980    -9.270    -8.666 -0.2298  0.9732  0.0000
              Bcc     1.3473    51.961    18.541    17.332  0.0000  0.0000  1.0000
 

 ---------------------------------------------------------------------------------

 No NMR shielding tensors so no spin-rotation constants.
 Leave Link  601 at Wed Mar 25 13:18:30 2026, MaxMem=    33554432 cpu:         0.1
 (Enter /opt/g09/g09/l9999.exe)

 Test job not archived.
 1\1\GINC-KADET27\SP\UB3LYP\6-31G(d)\N2(1+,2)\MDOROHUN\25-Mar-2026\0\\#
 P B3LYP/6-31G(d) guess=read GFInput Pop=Full IOP(6/80=1)\\n2 energia j
 onu w stanie Pi B3LYP\\1,2\N\N,1,1.1055\\Version=ES64L-G09RevD.01\Stat
 e=2-SGG\HF=-108.9460511\S2=0.753488\S2-1=0.\S2A=0.750003\RMSD=1.736e-0
 9\Dipole=0.,0.,0.\Quadrupole=-0.6056802,-0.6056802,1.2113605,0.,0.,0.\
 PG=D*H [C*(N1.N1)]\\@


 A MAN THINKING OR WORKING IS ALWAYS ALONE, 
 LET HIM BE WHERE HE WILL.

                                    -- THOREAU
 Job cpu time:       0 days  0 hours  0 minutes  0.3 seconds.
 File lengths (MBytes):  RWF=      5 Int=      0 D2E=      0 Chk=      2 Scr=      1
 Normal termination of Gaussian 09 at Wed Mar 25 13:18:30 2026.
