 Entering Gaussian System, Link 0=/opt/g09/g09/g09
 Input=n2_hf.inp
 Output=n2_hf.log
 Initial command:
 /opt/g09/g09/l1.exe "/tmp/Gau-9791.inp" -scrdir="/tmp/"
 Entering Link 1 = /opt/g09/g09/l1.exe PID=      9793.
  
 Copyright (c) 1988,1990,1992,1993,1995,1998,2003,2009,2013,
            Gaussian, Inc.  All Rights Reserved.
  
 This is part of the Gaussian(R) 09 program.  It is based on
 the Gaussian(R) 03 system (copyright 2003, Gaussian, Inc.),
 the Gaussian(R) 98 system (copyright 1998, Gaussian, Inc.),
 the Gaussian(R) 94 system (copyright 1995, Gaussian, Inc.),
 the Gaussian 92(TM) system (copyright 1992, Gaussian, Inc.),
 the Gaussian 90(TM) system (copyright 1990, Gaussian, Inc.),
 the Gaussian 88(TM) system (copyright 1988, Gaussian, Inc.),
 the Gaussian 86(TM) system (copyright 1986, Carnegie Mellon
 University), and the Gaussian 82(TM) system (copyright 1983,
 Carnegie Mellon University). Gaussian is a federally registered
 trademark of Gaussian, Inc.
  
 This software contains proprietary and confidential information,
 including trade secrets, belonging to Gaussian, Inc.
  
 This software is provided under written license and may be
 used, copied, transmitted, or stored only in accord with that
 written license.
  
 The following legend is applicable only to US Government
 contracts under FAR:
  
                    RESTRICTED RIGHTS LEGEND
  
 Use, reproduction and disclosure by the US Government is
 subject to restrictions as set forth in subparagraphs (a)
 and (c) of the Commercial Computer Software - Restricted
 Rights clause in FAR 52.227-19.
  
 Gaussian, Inc.
 340 Quinnipiac St., Bldg. 40, Wallingford CT 06492
  
  
 ---------------------------------------------------------------
 Warning -- This program may not be used in any manner that
 competes with the business of Gaussian, Inc. or will provide
 assistance to any competitor of Gaussian, Inc.  The licensee
 of this program is prohibited from giving any competitor of
 Gaussian, Inc. access to this program.  By using this program,
 the user acknowledges that Gaussian, Inc. is engaged in the
 business of creating and licensing software in the field of
 computational chemistry and represents and warrants to the
 licensee that it is not a competitor of Gaussian, Inc. and that
 it will not use this program in any manner prohibited above.
 ---------------------------------------------------------------
  

 Cite this work as:
 Gaussian 09, Revision D.01,
 M. J. Frisch, G. W. Trucks, H. B. Schlegel, G. E. Scuseria, 
 M. A. Robb, J. R. Cheeseman, G. Scalmani, V. Barone, B. Mennucci, 
 G. A. Petersson, H. Nakatsuji, M. Caricato, X. Li, H. P. Hratchian, 
 A. F. Izmaylov, J. Bloino, G. Zheng, J. L. Sonnenberg, M. Hada, 
 M. Ehara, K. Toyota, R. Fukuda, J. Hasegawa, M. Ishida, T. Nakajima, 
 Y. Honda, O. Kitao, H. Nakai, T. Vreven, J. A. Montgomery, Jr., 
 J. E. Peralta, F. Ogliaro, M. Bearpark, J. J. Heyd, E. Brothers, 
 K. N. Kudin, V. N. Staroverov, T. Keith, R. Kobayashi, J. Normand, 
 K. Raghavachari, A. Rendell, J. C. Burant, S. S. Iyengar, J. Tomasi, 
 M. Cossi, N. Rega, J. M. Millam, M. Klene, J. E. Knox, J. B. Cross, 
 V. Bakken, C. Adamo, J. Jaramillo, R. Gomperts, R. E. Stratmann, 
 O. Yazyev, A. J. Austin, R. Cammi, C. Pomelli, J. W. Ochterski, 
 R. L. Martin, K. Morokuma, V. G. Zakrzewski, G. A. Voth, 
 P. Salvador, J. J. Dannenberg, S. Dapprich, A. D. Daniels, 
 O. Farkas, J. B. Foresman, J. V. Ortiz, J. Cioslowski, 
 and D. J. Fox, Gaussian, Inc., Wallingford CT, 2013.
 
 ******************************************
 Gaussian 09:  ES64L-G09RevD.01 24-Apr-2013
                25-Mar-2026 
 ******************************************
 %chk=n2_hf.chk
 -----------------------------------------------
 #P HF/6-31G(d) Opt GFInput Pop=Full IOP(6/80=1)
 -----------------------------------------------
 1/18=20,19=15,38=1/1,3;
 2/9=110,12=2,17=6,18=5,40=1/2;
 3/5=1,6=6,7=1,11=9,16=1,24=10,25=1,30=1,71=1/1,2,3;
 4//1;
 5/5=2,38=5/2;
 6/7=3,28=1,80=1/1;
 7//1,2,3,16;
 1/18=20,19=15/3(2);
 2/9=110/2;
 99//99;
 2/9=110/2;
 3/5=1,6=6,7=1,11=9,16=1,25=1,30=1,71=1/1,2,3;
 4/5=5,16=3,69=1/1;
 5/5=2,38=5/2;
 7//1,2,3,16;
 1/18=20,19=15/3(-5);
 2/9=110/2;
 6/7=3,19=2,28=1,80=1/1;
 99/9=1/99;
 Leave Link    1 at Wed Mar 25 12:53:44 2026, MaxMem=           0 cpu:         0.0
 (Enter /opt/g09/g09/l101.exe)
 ------------------------------------
 optymalizacja geometrii n2 metoda HF
 ------------------------------------
 Symbolic Z-matrix:
 Charge =  0 Multiplicity = 1
 N
 N                    1     1.098 
 
 NAtoms=      2 NQM=        2 NQMF=       0 NMMI=      0 NMMIF=      0
                NMic=       0 NMicF=      0.
                    Isotopes and Nuclear Properties:
 (Nuclear quadrupole moments (NQMom) in fm**2, nuclear magnetic moments (NMagM)
  in nuclear magnetons)

  Atom         1           2
 IAtWgt=          14          14
 AtmWgt=  14.0030740  14.0030740
 NucSpn=           2           2
 AtZEff=   0.0000000   0.0000000
 NQMom=    2.0440000   2.0440000
 NMagM=    0.4037610   0.4037610
 AtZNuc=   7.0000000   7.0000000
 Leave Link  101 at Wed Mar 25 12:53:44 2026, MaxMem=    33554432 cpu:         0.0
 (Enter /opt/g09/g09/l103.exe)

 GradGradGradGradGradGradGradGradGradGradGradGradGradGradGradGradGradGrad
 Berny optimization.
 Initialization pass.
                           ----------------------------
                           !    Initial Parameters    !
                           ! (Angstroms and Degrees)  !
 --------------------------                            --------------------------
 ! Name  Definition              Value          Derivative Info.                !
 --------------------------------------------------------------------------------
 ! R1    R(1,2)                  1.098          estimate D2E/DX2                !
 --------------------------------------------------------------------------------
 Trust Radius=3.00D-01 FncErr=1.00D-07 GrdErr=1.00D-07
 Number of steps in this run=     20 maximum allowed number of steps=    100.
 GradGradGradGradGradGradGradGradGradGradGradGradGradGradGradGradGradGrad

 Leave Link  103 at Wed Mar 25 12:53:44 2026, MaxMem=    33554432 cpu:         0.0
 (Enter /opt/g09/g09/l202.exe)
                          Input orientation:                          
 ---------------------------------------------------------------------
 Center     Atomic      Atomic             Coordinates (Angstroms)
 Number     Number       Type             X           Y           Z
 ---------------------------------------------------------------------
      1          7           0        0.000000    0.000000    0.000000
      2          7           0        0.000000    0.000000    1.098000
 ---------------------------------------------------------------------
 Stoichiometry    N2
 Framework group  D*H[C*(N.N)]
 Deg. of freedom     1
 Full point group                 D*H     NOp   8
 Largest Abelian subgroup         D2H     NOp   8
 Largest concise Abelian subgroup C2      NOp   2
                         Standard orientation:                         
 ---------------------------------------------------------------------
 Center     Atomic      Atomic             Coordinates (Angstroms)
 Number     Number       Type             X           Y           Z
 ---------------------------------------------------------------------
      1          7           0        0.000000    0.000000    0.549000
      2          7           0        0.000000    0.000000   -0.549000
 ---------------------------------------------------------------------
 Rotational constants (GHZ):      0.0000000     59.8713605     59.8713605
 Leave Link  202 at Wed Mar 25 12:53:44 2026, MaxMem=    33554432 cpu:         0.0
 (Enter /opt/g09/g09/l301.exe)
 Standard basis: 6-31G(d) (6D, 7F)
 Ernie: Thresh=  0.10000D-02 Tol=  0.10000D-05 Strict=F.
 AO basis set in the form of general basis input (Overlap normalization):
      1 0
 S   6 1.00       0.000000000000
      0.4173511460D+04  0.1834772160D-02
      0.6274579110D+03  0.1399462700D-01
      0.1429020930D+03  0.6858655181D-01
      0.4023432930D+02  0.2322408730D+00
      0.1282021290D+02  0.4690699481D+00
      0.4390437010D+01  0.3604551991D+00
 SP   3 1.00       0.000000000000
      0.1162636186D+02 -0.1149611817D+00  0.6757974388D-01
      0.2716279807D+01 -0.1691174786D+00  0.3239072959D+00
      0.7722183966D+00  0.1145851947D+01  0.7408951398D+00
 SP   1 1.00       0.000000000000
      0.2120314975D+00  0.1000000000D+01  0.1000000000D+01
 D   1 1.00       0.000000000000
      0.8000000000D+00  0.1000000000D+01
 ****
      2 0
 S   6 1.00       0.000000000000
      0.4173511460D+04  0.1834772160D-02
      0.6274579110D+03  0.1399462700D-01
      0.1429020930D+03  0.6858655181D-01
      0.4023432930D+02  0.2322408730D+00
      0.1282021290D+02  0.4690699481D+00
      0.4390437010D+01  0.3604551991D+00
 SP   3 1.00       0.000000000000
      0.1162636186D+02 -0.1149611817D+00  0.6757974388D-01
      0.2716279807D+01 -0.1691174786D+00  0.3239072959D+00
      0.7722183966D+00  0.1145851947D+01  0.7408951398D+00
 SP   1 1.00       0.000000000000
      0.2120314975D+00  0.1000000000D+01  0.1000000000D+01
 D   1 1.00       0.000000000000
      0.8000000000D+00  0.1000000000D+01
 ****

 There are     8 symmetry adapted cartesian basis functions of AG  symmetry.
 There are     1 symmetry adapted cartesian basis functions of B1G symmetry.
 There are     3 symmetry adapted cartesian basis functions of B2G symmetry.
 There are     3 symmetry adapted cartesian basis functions of B3G symmetry.
 There are     1 symmetry adapted cartesian basis functions of AU  symmetry.
 There are     8 symmetry adapted cartesian basis functions of B1U symmetry.
 There are     3 symmetry adapted cartesian basis functions of B2U symmetry.
 There are     3 symmetry adapted cartesian basis functions of B3U symmetry.
 There are     8 symmetry adapted basis functions of AG  symmetry.
 There are     1 symmetry adapted basis functions of B1G symmetry.
 There are     3 symmetry adapted basis functions of B2G symmetry.
 There are     3 symmetry adapted basis functions of B3G symmetry.
 There are     1 symmetry adapted basis functions of AU  symmetry.
 There are     8 symmetry adapted basis functions of B1U symmetry.
 There are     3 symmetry adapted basis functions of B2U symmetry.
 There are     3 symmetry adapted basis functions of B3U symmetry.
    30 basis functions,    56 primitive gaussians,    30 cartesian basis functions
     7 alpha electrons        7 beta electrons
       nuclear repulsion energy        23.6153763396 Hartrees.
 IExCor=    0 DFT=F Ex=HF Corr=None ExCW=0 ScaHFX=  1.000000
 ScaDFX=  1.000000  1.000000  1.000000  1.000000 ScalE2=  1.000000  1.000000
 IRadAn=      0 IRanWt=     -1 IRanGd=            0 ICorTp=0 IEmpDi=  4
 NAtoms=    2 NActive=    2 NUniq=    1 SFac= 4.00D+00 NAtFMM=   60 NAOKFM=F Big=F
 Integral buffers will be    131072 words long.
 Raffenetti 1 integral format.
 Two-electron integral symmetry is turned on.
 Leave Link  301 at Wed Mar 25 12:53:44 2026, MaxMem=    33554432 cpu:         0.0
 (Enter /opt/g09/g09/l302.exe)
 NPDir=0 NMtPBC=     1 NCelOv=     1 NCel=       1 NClECP=     1 NCelD=      1
         NCelK=      1 NCelE2=     1 NClLst=     1 CellRange=     0.0.
 One-electron integrals computed using PRISM.
 One-electron integral symmetry used in STVInt
 NBasis=    30 RedAO= T EigKep=  6.14D-03  NBF=     8     1     3     3     1     8     3     3
 NBsUse=    30 1.00D-06 EigRej= -1.00D+00 NBFU=     8     1     3     3     1     8     3     3
 Leave Link  302 at Wed Mar 25 12:53:44 2026, MaxMem=    33554432 cpu:         0.0
 (Enter /opt/g09/g09/l303.exe)
 DipDrv:  MaxL=1.
 Leave Link  303 at Wed Mar 25 12:53:44 2026, MaxMem=    33554432 cpu:         0.0
 (Enter /opt/g09/g09/l401.exe)
 ExpMin= 2.12D-01 ExpMax= 4.17D+03 ExpMxC= 6.27D+02 IAcc=1 IRadAn=         1 AccDes= 0.00D+00
 Harris functional with IExCor=  205 and IRadAn=       1 diagonalized for initial guess.
 HarFok:  IExCor=  205 AccDes= 0.00D+00 IRadAn=         1 IDoV= 1 UseB2=F ITyADJ=14
 ICtDFT=  3500011 ScaDFX=  1.000000  1.000000  1.000000  1.000000
 FoFCou: FMM=F IPFlag=           0 FMFlag=      100000 FMFlg1=           0
         NFxFlg=           0 DoJE=T BraDBF=F KetDBF=T FulRan=T
         wScrn=  0.000000 ICntrl=     500 IOpCl=  0 I1Cent=   200000004 NGrid=           0
         NMat0=    1 NMatS0=      1 NMatT0=    0 NMatD0=    1 NMtDS0=    0 NMtDT0=    0
 Petite list used in FoFCou.
 Harris En= -108.906109185726    
 JPrj=0 DoOrth=F DoCkMO=F.
 Initial guess orbital symmetries:
       Occupied  (SGG) (SGU) (SGG) (SGU) (PIU) (PIU) (SGG)
       Virtual   (PIG) (PIG) (SGU) (SGG) (PIU) (PIU) (SGG) (PIG)
                 (PIG) (SGU) (SGU) (DLTG) (DLTG) (PIU) (PIU) (DLTU)
                 (DLTU) (SGG) (PIG) (PIG) (SGU) (SGG) (SGU)
 The electronic state of the initial guess is 1-SGG.
 Leave Link  401 at Wed Mar 25 12:53:44 2026, MaxMem=    33554432 cpu:         0.0
 (Enter /opt/g09/g09/l502.exe)
 Closed shell SCF:
 Using DIIS extrapolation, IDIIS=  1040.
 Integral symmetry usage will be decided dynamically.
 Keep R1 ints in memory in symmetry-blocked form, NReq=959811.
 IVT=       21766 IEndB=       21766 NGot=    33554432 MDV=    33514620
 LenX=    33514620 LenY=    33513279
 Requested convergence on RMS density matrix=1.00D-08 within 128 cycles.
 Requested convergence on MAX density matrix=1.00D-06.
 Requested convergence on             energy=1.00D-06.
 No special actions if energy rises.
 FoFCou: FMM=F IPFlag=           0 FMFlag=           0 FMFlg1=           0
         NFxFlg=           0 DoJE=F BraDBF=F KetDBF=F FulRan=T
         wScrn=  0.000000 ICntrl=     600 IOpCl=  0 I1Cent=           0 NGrid=           0
         NMat0=    1 NMatS0=    465 NMatT0=    0 NMatD0=    1 NMtDS0=    0 NMtDT0=    0
 Petite list used in FoFCou.

 Cycle   1  Pass 1  IDiag  1:
 E= -108.920172384273    
 DIIS: error= 6.68D-02 at cycle   1 NSaved=   1.
 NSaved= 1 IEnMin= 1 EnMin= -108.920172384273     IErMin= 1 ErrMin= 6.68D-02
 ErrMax= 6.68D-02  0.00D+00 EMaxC= 1.00D-01 BMatC= 8.09D-02 BMatP= 8.09D-02
 IDIUse=3 WtCom= 3.32D-01 WtEn= 6.68D-01
 Coeff-Com:  0.100D+01
 Coeff-En:   0.100D+01
 Coeff:      0.100D+01
 Gap=     0.795 Goal=   None    Shift=    0.000
 GapD=    0.795 DampG=2.000 DampE=0.500 DampFc=1.0000 IDamp=-1.
 RMSDP=4.32D-03 MaxDP=2.74D-02              OVMax= 3.80D-02

 Cycle   2  Pass 1  IDiag  1:
 E= -108.941916383616     Delta-E=       -0.021743999343 Rises=F Damp=F
 DIIS: error= 5.88D-03 at cycle   2 NSaved=   2.
 NSaved= 2 IEnMin= 2 EnMin= -108.941916383616     IErMin= 2 ErrMin= 5.88D-03
 ErrMax= 5.88D-03  0.00D+00 EMaxC= 1.00D-01 BMatC= 9.74D-04 BMatP= 8.09D-02
 IDIUse=3 WtCom= 9.41D-01 WtEn= 5.88D-02
 Coeff-Com: -0.588D-01 0.106D+01
 Coeff-En:   0.000D+00 0.100D+01
 Coeff:     -0.553D-01 0.106D+01
 Gap=     0.783 Goal=   None    Shift=    0.000
 RMSDP=1.05D-03 MaxDP=1.39D-02 DE=-2.17D-02 OVMax= 8.47D-03

 Cycle   3  Pass 1  IDiag  1:
 E= -108.942577143573     Delta-E=       -0.000660759958 Rises=F Damp=F
 DIIS: error= 1.66D-03 at cycle   3 NSaved=   3.
 NSaved= 3 IEnMin= 3 EnMin= -108.942577143573     IErMin= 3 ErrMin= 1.66D-03
 ErrMax= 1.66D-03  0.00D+00 EMaxC= 1.00D-01 BMatC= 3.43D-05 BMatP= 9.74D-04
 IDIUse=3 WtCom= 9.83D-01 WtEn= 1.66D-02
 Coeff-Com: -0.895D-02 0.908D-01 0.918D+00
 Coeff-En:   0.000D+00 0.000D+00 0.100D+01
 Coeff:     -0.880D-02 0.893D-01 0.919D+00
 Gap=     0.782 Goal=   None    Shift=    0.000
 RMSDP=1.77D-04 MaxDP=1.28D-03 DE=-6.61D-04 OVMax= 2.15D-03

 Cycle   4  Pass 1  IDiag  1:
 E= -108.942619523307     Delta-E=       -0.000042379733 Rises=F Damp=F
 DIIS: error= 3.85D-04 at cycle   4 NSaved=   4.
 NSaved= 4 IEnMin= 4 EnMin= -108.942619523307     IErMin= 4 ErrMin= 3.85D-04
 ErrMax= 3.85D-04  0.00D+00 EMaxC= 1.00D-01 BMatC= 2.46D-06 BMatP= 3.43D-05
 IDIUse=3 WtCom= 9.96D-01 WtEn= 3.85D-03
 Coeff-Com:  0.386D-02-0.682D-01-0.151D+00 0.122D+01
 Coeff-En:   0.000D+00 0.000D+00 0.000D+00 0.100D+01
 Coeff:      0.384D-02-0.680D-01-0.151D+00 0.121D+01
 Gap=     0.782 Goal=   None    Shift=    0.000
 RMSDP=7.92D-05 MaxDP=7.75D-04 DE=-4.24D-05 OVMax= 7.24D-04

 Cycle   5  Pass 1  IDiag  1:
 E= -108.942622790370     Delta-E=       -0.000003267063 Rises=F Damp=F
 DIIS: error= 2.61D-05 at cycle   5 NSaved=   5.
 NSaved= 5 IEnMin= 5 EnMin= -108.942622790370     IErMin= 5 ErrMin= 2.61D-05
 ErrMax= 2.61D-05  0.00D+00 EMaxC= 1.00D-01 BMatC= 7.80D-09 BMatP= 2.46D-06
 IDIUse=1 WtCom= 1.00D+00 WtEn= 0.00D+00
 Coeff-Com: -0.176D-03 0.354D-02 0.254D-02-0.710D-01 0.107D+01
 Coeff:     -0.176D-03 0.354D-02 0.254D-02-0.710D-01 0.107D+01
 Gap=     0.782 Goal=   None    Shift=    0.000
 RMSDP=6.39D-06 MaxDP=6.86D-05 DE=-3.27D-06 OVMax= 4.23D-05

 Cycle   6  Pass 1  IDiag  1:
 E= -108.942622802146     Delta-E=       -0.000000011776 Rises=F Damp=F
 DIIS: error= 4.57D-06 at cycle   6 NSaved=   6.
 NSaved= 6 IEnMin= 6 EnMin= -108.942622802146     IErMin= 6 ErrMin= 4.57D-06
 ErrMax= 4.57D-06  0.00D+00 EMaxC= 1.00D-01 BMatC= 2.99D-10 BMatP= 7.80D-09
 IDIUse=1 WtCom= 1.00D+00 WtEn= 0.00D+00
 Coeff-Com: -0.260D-04 0.498D-03 0.155D-02-0.694D-02-0.212D+00 0.122D+01
 Coeff:     -0.260D-04 0.498D-03 0.155D-02-0.694D-02-0.212D+00 0.122D+01
 Gap=     0.782 Goal=   None    Shift=    0.000
 RMSDP=1.62D-06 MaxDP=1.74D-05 DE=-1.18D-08 OVMax= 1.09D-05

 Cycle   7  Pass 1  IDiag  1:
 E= -108.942622802624     Delta-E=       -0.000000000478 Rises=F Damp=F
 DIIS: error= 4.86D-07 at cycle   7 NSaved=   7.
 NSaved= 7 IEnMin= 7 EnMin= -108.942622802624     IErMin= 7 ErrMin= 4.86D-07
 ErrMax= 4.86D-07  0.00D+00 EMaxC= 1.00D-01 BMatC= 2.46D-12 BMatP= 2.99D-10
 IDIUse=1 WtCom= 1.00D+00 WtEn= 0.00D+00
 Coeff-Com:  0.904D-05-0.175D-03-0.449D-03 0.281D-02 0.344D-01-0.262D+00
 Coeff-Com:  0.123D+01
 Coeff:      0.904D-05-0.175D-03-0.449D-03 0.281D-02 0.344D-01-0.262D+00
 Coeff:      0.123D+01
 Gap=     0.782 Goal=   None    Shift=    0.000
 RMSDP=9.99D-08 MaxDP=8.98D-07 DE=-4.78D-10 OVMax= 9.97D-07

 Cycle   8  Pass 1  IDiag  1:
 E= -108.942622802628     Delta-E=       -0.000000000004 Rises=F Damp=F
 DIIS: error= 3.85D-08 at cycle   8 NSaved=   8.
 NSaved= 8 IEnMin= 8 EnMin= -108.942622802628     IErMin= 8 ErrMin= 3.85D-08
 ErrMax= 3.85D-08  0.00D+00 EMaxC= 1.00D-01 BMatC= 2.28D-14 BMatP= 2.46D-12
 IDIUse=1 WtCom= 1.00D+00 WtEn= 0.00D+00
 Coeff-Com: -0.110D-05 0.222D-04 0.637D-04-0.394D-03-0.332D-02 0.296D-01
 Coeff-Com: -0.208D+00 0.118D+01
 Coeff:     -0.110D-05 0.222D-04 0.637D-04-0.394D-03-0.332D-02 0.296D-01
 Coeff:     -0.208D+00 0.118D+01
 Gap=     0.782 Goal=   None    Shift=    0.000
 RMSDP=8.92D-09 MaxDP=8.39D-08 DE=-4.04D-12 OVMax= 8.31D-08

 SCF Done:  E(RHF) =  -108.942622803     A.U. after    8 cycles
            NFock=  8  Conv=0.89D-08     -V/T= 2.0046
 KE= 1.084403919315D+02 PE=-3.025697668322D+02 EE= 6.157137575849D+01
 Leave Link  502 at Wed Mar 25 12:53:44 2026, MaxMem=    33554432 cpu:         0.0
 (Enter /opt/g09/g09/l601.exe)
 Copying SCF densities to generalized density rwf, IOpCl= 0 IROHF=0.

 **********************************************************************

            Population analysis using the SCF density.

 **********************************************************************

 Orbital symmetries:
       Occupied  (SGG) (SGU) (SGG) (SGU) (SGG) (PIU) (PIU)
       Virtual   (PIG) (PIG) (SGU) (SGG) (PIU) (PIU) (SGG) (PIG)
                 (PIG) (SGU) (SGU) (DLTG) (DLTG) (PIU) (PIU) (DLTU)
                 (DLTU) (SGG) (PIG) (PIG) (SGU) (SGG) (SGU)
 The electronic state is 1-SGG.
 Alpha  occ. eigenvalues --  -15.69673 -15.69333  -1.47360  -0.77638  -0.63001
 Alpha  occ. eigenvalues --   -0.61163  -0.61163
 Alpha virt. eigenvalues --    0.17026   0.17026   0.58519   0.77436   0.83660
 Alpha virt. eigenvalues --    0.83660   0.83801   1.01474   1.01474   1.06985
 Alpha virt. eigenvalues --    1.49001   1.71783   1.71783   1.85319   1.85319
 Alpha virt. eigenvalues --    2.25896   2.25896   2.73366   2.94361   2.94361
 Alpha virt. eigenvalues --    3.22952   3.67975   3.98965
     Molecular Orbital Coefficients:
                           1         2         3         4         5
                       (SGG)--O  (SGU)--O  (SGG)--O  (SGU)--O  (SGG)--O
     Eigenvalues --   -15.69673 -15.69333  -1.47360  -0.77638  -0.63001
   1 1   N  1S          0.70339   0.70398  -0.15933  -0.14643  -0.05515
   2        2S          0.01687   0.01721   0.33730   0.33262   0.10710
   3        2PX         0.00000   0.00000   0.00000   0.00000   0.00000
   4        2PY         0.00000   0.00000   0.00000   0.00000   0.00000
   5        2PZ        -0.00143  -0.00231  -0.22002   0.22130   0.45862
   6        3S          0.00028  -0.00109   0.18520   0.48806   0.33200
   7        3PX         0.00000   0.00000   0.00000   0.00000   0.00000
   8        3PY         0.00000   0.00000   0.00000   0.00000   0.00000
   9        3PZ         0.00044   0.00041  -0.03444   0.07977   0.20265
  10        4XX        -0.00267  -0.00258  -0.01155   0.00154   0.00669
  11        4YY        -0.00267  -0.00258  -0.01155   0.00154   0.00669
  12        4ZZ        -0.00207  -0.00067   0.03066  -0.01751  -0.03000
  13        4XY         0.00000   0.00000   0.00000   0.00000   0.00000
  14        4XZ         0.00000   0.00000   0.00000   0.00000   0.00000
  15        4YZ         0.00000   0.00000   0.00000   0.00000   0.00000
  16 2   N  1S          0.70339  -0.70398  -0.15933   0.14643  -0.05515
  17        2S          0.01687  -0.01721   0.33730  -0.33262   0.10710
  18        2PX         0.00000   0.00000   0.00000   0.00000   0.00000
  19        2PY         0.00000   0.00000   0.00000   0.00000   0.00000
  20        2PZ         0.00143  -0.00231   0.22002   0.22130  -0.45862
  21        3S          0.00028   0.00109   0.18520  -0.48806   0.33200
  22        3PX         0.00000   0.00000   0.00000   0.00000   0.00000
  23        3PY         0.00000   0.00000   0.00000   0.00000   0.00000
  24        3PZ        -0.00044   0.00041   0.03444   0.07977  -0.20265
  25        4XX        -0.00267   0.00258  -0.01155  -0.00154   0.00669
  26        4YY        -0.00267   0.00258  -0.01155  -0.00154   0.00669
  27        4ZZ        -0.00207   0.00067   0.03066   0.01751  -0.03000
  28        4XY         0.00000   0.00000   0.00000   0.00000   0.00000
  29        4XZ         0.00000   0.00000   0.00000   0.00000   0.00000
  30        4YZ         0.00000   0.00000   0.00000   0.00000   0.00000
                           6         7         8         9        10
                       (PIU)--O  (PIU)--O  (PIG)--V  (PIG)--V  (SGU)--V
     Eigenvalues --    -0.61163  -0.61163   0.17026   0.17026   0.58519
   1 1   N  1S          0.00000   0.00000   0.00000   0.00000  -0.09242
   2        2S          0.00000   0.00000   0.00000   0.00000   0.20497
   3        2PX         0.00000   0.43346   0.43371   0.00000   0.00000
   4        2PY         0.43346   0.00000   0.00000   0.43371   0.00000
   5        2PZ         0.00000   0.00000   0.00000   0.00000  -0.06059
   6        3S          0.00000   0.00000   0.00000   0.00000   4.14838
   7        3PX         0.00000   0.24906   0.67984   0.00000   0.00000
   8        3PY         0.24906   0.00000   0.00000   0.67984   0.00000
   9        3PZ         0.00000   0.00000   0.00000   0.00000  -2.74935
  10        4XX         0.00000   0.00000   0.00000   0.00000  -0.00276
  11        4YY         0.00000   0.00000   0.00000   0.00000  -0.00276
  12        4ZZ         0.00000   0.00000   0.00000   0.00000   0.08430
  13        4XY         0.00000   0.00000   0.00000   0.00000   0.00000
  14        4XZ         0.00000  -0.04770   0.01344   0.00000   0.00000
  15        4YZ        -0.04770   0.00000   0.00000   0.01344   0.00000
  16 2   N  1S          0.00000   0.00000   0.00000   0.00000   0.09242
  17        2S          0.00000   0.00000   0.00000   0.00000  -0.20497
  18        2PX         0.00000   0.43346  -0.43371   0.00000   0.00000
  19        2PY         0.43346   0.00000   0.00000  -0.43371   0.00000
  20        2PZ         0.00000   0.00000   0.00000   0.00000  -0.06059
  21        3S          0.00000   0.00000   0.00000   0.00000  -4.14838
  22        3PX         0.00000   0.24906  -0.67984   0.00000   0.00000
  23        3PY         0.24906   0.00000   0.00000  -0.67984   0.00000
  24        3PZ         0.00000   0.00000   0.00000   0.00000  -2.74935
  25        4XX         0.00000   0.00000   0.00000   0.00000   0.00276
  26        4YY         0.00000   0.00000   0.00000   0.00000   0.00276
  27        4ZZ         0.00000   0.00000   0.00000   0.00000  -0.08430
  28        4XY         0.00000   0.00000   0.00000   0.00000   0.00000
  29        4XZ         0.00000   0.04770   0.01344   0.00000   0.00000
  30        4YZ         0.04770   0.00000   0.00000   0.01344   0.00000
                          11        12        13        14        15
                       (SGG)--V  (PIU)--V  (PIU)--V  (SGG)--V  (PIG)--V
     Eigenvalues --     0.77436   0.83660   0.83660   0.83801   1.01474
   1 1   N  1S          0.02944   0.00000   0.00000   0.00797   0.00000
   2        2S          0.54591   0.00000   0.00000  -0.64796   0.00000
   3        2PX         0.00000   0.63370   0.00000   0.00000   0.00000
   4        2PY         0.00000   0.00000   0.63370   0.00000  -0.72729
   5        2PZ        -0.31282   0.00000   0.00000  -0.42115   0.00000
   6        3S         -0.45298   0.00000   0.00000   1.00534   0.00000
   7        3PX         0.00000  -0.61973   0.00000   0.00000   0.00000
   8        3PY         0.00000   0.00000  -0.61973   0.00000   1.17051
   9        3PZ         0.84193   0.00000   0.00000   0.49274   0.00000
  10        4XX         0.07683   0.00000   0.00000  -0.15833   0.00000
  11        4YY         0.07683   0.00000   0.00000  -0.15833   0.00000
  12        4ZZ         0.17574   0.00000   0.00000  -0.16456   0.00000
  13        4XY         0.00000   0.00000   0.00000   0.00000   0.00000
  14        4XZ         0.00000  -0.10105   0.00000   0.00000   0.00000
  15        4YZ         0.00000   0.00000  -0.10105   0.00000  -0.07212
  16 2   N  1S          0.02944   0.00000   0.00000   0.00797   0.00000
  17        2S          0.54591   0.00000   0.00000  -0.64796   0.00000
  18        2PX         0.00000   0.63370   0.00000   0.00000   0.00000
  19        2PY         0.00000   0.00000   0.63370   0.00000   0.72729
  20        2PZ         0.31282   0.00000   0.00000   0.42115   0.00000
  21        3S         -0.45298   0.00000   0.00000   1.00534   0.00000
  22        3PX         0.00000  -0.61973   0.00000   0.00000   0.00000
  23        3PY         0.00000   0.00000  -0.61973   0.00000  -1.17051
  24        3PZ        -0.84193   0.00000   0.00000  -0.49274   0.00000
  25        4XX         0.07683   0.00000   0.00000  -0.15833   0.00000
  26        4YY         0.07683   0.00000   0.00000  -0.15833   0.00000
  27        4ZZ         0.17574   0.00000   0.00000  -0.16456   0.00000
  28        4XY         0.00000   0.00000   0.00000   0.00000   0.00000
  29        4XZ         0.00000   0.10105   0.00000   0.00000   0.00000
  30        4YZ         0.00000   0.00000   0.10105   0.00000  -0.07212
                          16        17        18        19        20
                       (PIG)--V  (SGU)--V  (SGU)--V  (DLTG)--  (DLTG)--
     Eigenvalues --     1.01474   1.06985   1.49001   1.71783   1.71783
   1 1   N  1S          0.00000  -0.08206  -0.01419   0.00000   0.00000
   2        2S          0.00000  -0.40113  -1.21856   0.00000   0.00000
   3        2PX        -0.72729   0.00000   0.00000   0.00000   0.00000
   4        2PY         0.00000   0.00000   0.00000   0.00000   0.00000
   5        2PZ         0.00000  -0.64827   0.34685   0.00000   0.00000
   6        3S          0.00000   2.46001   6.72616   0.00000   0.00000
   7        3PX         1.17051   0.00000   0.00000   0.00000   0.00000
   8        3PY         0.00000   0.00000   0.00000   0.00000   0.00000
   9        3PZ         0.00000  -0.57793  -3.06413   0.00000   0.00000
  10        4XX         0.00000  -0.04422  -0.26331   0.56405   0.00000
  11        4YY         0.00000  -0.04422  -0.26331  -0.56405   0.00000
  12        4ZZ         0.00000  -0.36118   0.08599   0.00000   0.00000
  13        4XY         0.00000   0.00000   0.00000   0.00000   0.65131
  14        4XZ        -0.07212   0.00000   0.00000   0.00000   0.00000
  15        4YZ         0.00000   0.00000   0.00000   0.00000   0.00000
  16 2   N  1S          0.00000   0.08206   0.01419   0.00000   0.00000
  17        2S          0.00000   0.40113   1.21856   0.00000   0.00000
  18        2PX         0.72729   0.00000   0.00000   0.00000   0.00000
  19        2PY         0.00000   0.00000   0.00000   0.00000   0.00000
  20        2PZ         0.00000  -0.64827   0.34685   0.00000   0.00000
  21        3S          0.00000  -2.46001  -6.72616   0.00000   0.00000
  22        3PX        -1.17051   0.00000   0.00000   0.00000   0.00000
  23        3PY         0.00000   0.00000   0.00000   0.00000   0.00000
  24        3PZ         0.00000  -0.57793  -3.06413   0.00000   0.00000
  25        4XX         0.00000   0.04422   0.26331   0.56405   0.00000
  26        4YY         0.00000   0.04422   0.26331  -0.56405   0.00000
  27        4ZZ         0.00000   0.36118  -0.08599   0.00000   0.00000
  28        4XY         0.00000   0.00000   0.00000   0.00000   0.65131
  29        4XZ        -0.07212   0.00000   0.00000   0.00000   0.00000
  30        4YZ         0.00000   0.00000   0.00000   0.00000   0.00000
                          21        22        23        24        25
                       (PIU)--V  (PIU)--V  (DLTU)--  (DLTU)--  (SGG)--V
     Eigenvalues --     1.85319   1.85319   2.25896   2.25896   2.73366
   1 1   N  1S          0.00000   0.00000   0.00000   0.00000   0.13078
   2        2S          0.00000   0.00000   0.00000   0.00000   0.32336
   3        2PX         0.29179   0.00000   0.00000   0.00000   0.00000
   4        2PY         0.00000   0.29179   0.00000   0.00000   0.00000
   5        2PZ         0.00000   0.00000   0.00000   0.00000  -0.33615
   6        3S          0.00000   0.00000   0.00000   0.00000  -0.53121
   7        3PX        -0.07032   0.00000   0.00000   0.00000   0.00000
   8        3PY         0.00000  -0.07032   0.00000   0.00000   0.00000
   9        3PZ         0.00000   0.00000   0.00000   0.00000   0.56501
  10        4XX         0.00000   0.00000   0.67571   0.00000   0.67897
  11        4YY         0.00000   0.00000  -0.67571   0.00000   0.67897
  12        4ZZ         0.00000   0.00000   0.00000   0.00000  -0.55094
  13        4XY         0.00000   0.00000   0.00000   0.78024   0.00000
  14        4XZ         0.59585   0.00000   0.00000   0.00000   0.00000
  15        4YZ         0.00000   0.59585   0.00000   0.00000   0.00000
  16 2   N  1S          0.00000   0.00000   0.00000   0.00000   0.13078
  17        2S          0.00000   0.00000   0.00000   0.00000   0.32336
  18        2PX         0.29179   0.00000   0.00000   0.00000   0.00000
  19        2PY         0.00000   0.29179   0.00000   0.00000   0.00000
  20        2PZ         0.00000   0.00000   0.00000   0.00000   0.33615
  21        3S          0.00000   0.00000   0.00000   0.00000  -0.53121
  22        3PX        -0.07032   0.00000   0.00000   0.00000   0.00000
  23        3PY         0.00000  -0.07032   0.00000   0.00000   0.00000
  24        3PZ         0.00000   0.00000   0.00000   0.00000  -0.56501
  25        4XX         0.00000   0.00000  -0.67571   0.00000   0.67897
  26        4YY         0.00000   0.00000   0.67571   0.00000   0.67897
  27        4ZZ         0.00000   0.00000   0.00000   0.00000  -0.55094
  28        4XY         0.00000   0.00000   0.00000  -0.78024   0.00000
  29        4XZ        -0.59585   0.00000   0.00000   0.00000   0.00000
  30        4YZ         0.00000  -0.59585   0.00000   0.00000   0.00000
                          26        27        28        29        30
                       (PIG)--V  (PIG)--V  (SGU)--V  (SGG)--V  (SGU)--V
     Eigenvalues --     2.94361   2.94361   3.22952   3.67975   3.98965
   1 1   N  1S          0.00000   0.00000  -0.00198  -0.24022  -0.35189
   2        2S          0.00000   0.00000   0.51161   1.30173   0.55480
   3        2PX        -0.26157   0.00000   0.00000   0.00000   0.00000
   4        2PY         0.00000  -0.26157   0.00000   0.00000   0.00000
   5        2PZ         0.00000   0.00000  -1.13421  -0.14119   0.44482
   6        3S          0.00000   0.00000   3.12191   0.79158   3.87070
   7        3PX        -0.46871   0.00000   0.00000   0.00000   0.00000
   8        3PY         0.00000  -0.46871   0.00000   0.00000   0.00000
   9        3PZ         0.00000   0.00000  -1.64367   0.06137  -1.20156
  10        4XX         0.00000   0.00000  -0.50967  -0.78137  -1.07030
  11        4YY         0.00000   0.00000  -0.50967  -0.78137  -1.07030
  12        4ZZ         0.00000   0.00000   1.31538  -1.10603  -1.21261
  13        4XY         0.00000   0.00000   0.00000   0.00000   0.00000
  14        4XZ         1.11494   0.00000   0.00000   0.00000   0.00000
  15        4YZ         0.00000   1.11494   0.00000   0.00000   0.00000
  16 2   N  1S          0.00000   0.00000   0.00198  -0.24022   0.35189
  17        2S          0.00000   0.00000  -0.51161   1.30173  -0.55480
  18        2PX         0.26157   0.00000   0.00000   0.00000   0.00000
  19        2PY         0.00000   0.26157   0.00000   0.00000   0.00000
  20        2PZ         0.00000   0.00000  -1.13421   0.14119   0.44482
  21        3S          0.00000   0.00000  -3.12191   0.79158  -3.87070
  22        3PX         0.46871   0.00000   0.00000   0.00000   0.00000
  23        3PY         0.00000   0.46871   0.00000   0.00000   0.00000
  24        3PZ         0.00000   0.00000  -1.64367  -0.06137  -1.20156
  25        4XX         0.00000   0.00000   0.50967  -0.78137   1.07030
  26        4YY         0.00000   0.00000   0.50967  -0.78137   1.07030
  27        4ZZ         0.00000   0.00000  -1.31538  -1.10603   1.21261
  28        4XY         0.00000   0.00000   0.00000   0.00000   0.00000
  29        4XZ         1.11494   0.00000   0.00000   0.00000   0.00000
  30        4YZ         0.00000   1.11494   0.00000   0.00000   0.00000
     Density Matrix:
                           1         2         3         4         5
   1 1   N  1S          2.08042
   2        2S         -0.16874   0.47291
   3        2PX         0.00000   0.00000   0.37578
   4        2PY         0.00000   0.00000   0.00000   0.37578
   5        2PZ        -0.05055   0.09690   0.00000   0.00000   0.61545
   6        3S         -0.23971   0.52070   0.00000   0.00000   0.43905
   7        3PX         0.00000   0.00000   0.21591   0.00000   0.00000
   8        3PY         0.00000   0.00000   0.00000   0.21591   0.00000
   9        3PZ        -0.03355   0.07327   0.00000   0.00000   0.23634
  10        4XX        -0.00490  -0.00551   0.00000   0.00000   0.01192
  11        4YY        -0.00490  -0.00551   0.00000   0.00000   0.01192
  12        4ZZ        -0.00519   0.00252   0.00000   0.00000  -0.04875
  13        4XY         0.00000   0.00000   0.00000   0.00000   0.00000
  14        4XZ         0.00000   0.00000  -0.04135   0.00000   0.00000
  15        4YZ         0.00000   0.00000   0.00000  -0.04135   0.00000
  16 2   N  1S          0.01231  -0.02239   0.00000   0.00000   0.08558
  17        2S         -0.02239   0.02919   0.00000   0.00000  -0.19737
  18        2PX         0.00000   0.00000   0.37578   0.00000   0.00000
  19        2PY         0.00000   0.00000   0.00000   0.37578   0.00000
  20        2PZ        -0.08558   0.19737   0.00000   0.00000  -0.41952
  21        3S          0.04924  -0.12857   0.00000   0.00000   0.00701
  22        3PX         0.00000   0.00000   0.21591   0.00000   0.00000
  23        3PY         0.00000   0.00000   0.00000   0.21591   0.00000
  24        3PZ        -0.01202   0.03289   0.00000   0.00000  -0.16573
  25        4XX         0.00328  -0.00738   0.00000   0.00000   0.01053
  26        4YY         0.00328  -0.00738   0.00000   0.00000   0.01053
  27        4ZZ        -0.01355   0.02586   0.00000   0.00000  -0.03326
  28        4XY         0.00000   0.00000   0.00000   0.00000   0.00000
  29        4XZ         0.00000   0.00000   0.04135   0.00000   0.00000
  30        4YZ         0.00000   0.00000   0.00000   0.04135   0.00000
                           6         7         8         9        10
   6        3S          0.76546
   7        3PX         0.00000   0.12406
   8        3PY         0.00000   0.00000   0.12406
   9        3PZ         0.19967   0.00000   0.00000   0.09723
  10        4XX         0.00167   0.00000   0.00000   0.00375   0.00039
  11        4YY         0.00167   0.00000   0.00000   0.00375   0.00039
  12        4ZZ        -0.02565   0.00000   0.00000  -0.01707  -0.00115
  13        4XY         0.00000   0.00000   0.00000   0.00000   0.00000
  14        4XZ         0.00000  -0.02376   0.00000   0.00000   0.00000
  15        4YZ         0.00000   0.00000  -0.02376   0.00000   0.00000
  16 2   N  1S          0.04924   0.00000   0.00000   0.01202   0.00328
  17        2S         -0.12857   0.00000   0.00000  -0.03289  -0.00738
  18        2PX         0.00000   0.21591   0.00000   0.00000   0.00000
  19        2PY         0.00000   0.00000   0.21591   0.00000   0.00000
  20        2PZ        -0.00701   0.00000   0.00000  -0.16573  -0.01053
  21        3S         -0.18735   0.00000   0.00000   0.04395  -0.00134
  22        3PX         0.00000   0.12406   0.00000   0.00000   0.00000
  23        3PY         0.00000   0.00000   0.12406   0.00000   0.00000
  24        3PZ        -0.04395   0.00000   0.00000  -0.07178  -0.00326
  25        4XX        -0.00134   0.00000   0.00000   0.00326   0.00035
  26        4YY        -0.00134   0.00000   0.00000   0.00326   0.00035
  27        4ZZ         0.00852   0.00000   0.00000  -0.01148  -0.00105
  28        4XY         0.00000   0.00000   0.00000   0.00000   0.00000
  29        4XZ         0.00000   0.02376   0.00000   0.00000   0.00000
  30        4YZ         0.00000   0.00000   0.02376   0.00000   0.00000
                          11        12        13        14        15
  11        4YY         0.00039
  12        4ZZ        -0.00115   0.00430
  13        4XY         0.00000   0.00000   0.00000
  14        4XZ         0.00000   0.00000   0.00000   0.00455
  15        4YZ         0.00000   0.00000   0.00000   0.00000   0.00455
  16 2   N  1S          0.00328  -0.01355   0.00000   0.00000   0.00000
  17        2S         -0.00738   0.02586   0.00000   0.00000   0.00000
  18        2PX         0.00000   0.00000   0.00000  -0.04135   0.00000
  19        2PY         0.00000   0.00000   0.00000   0.00000  -0.04135
  20        2PZ        -0.01053   0.03326   0.00000   0.00000   0.00000
  21        3S         -0.00134   0.00852   0.00000   0.00000   0.00000
  22        3PX         0.00000   0.00000   0.00000  -0.02376   0.00000
  23        3PY         0.00000   0.00000   0.00000   0.00000  -0.02376
  24        3PZ        -0.00326   0.01148   0.00000   0.00000   0.00000
  25        4XX         0.00035  -0.00105   0.00000   0.00000   0.00000
  26        4YY         0.00035  -0.00105   0.00000   0.00000   0.00000
  27        4ZZ        -0.00105   0.00307   0.00000   0.00000   0.00000
  28        4XY         0.00000   0.00000   0.00000   0.00000   0.00000
  29        4XZ         0.00000   0.00000   0.00000  -0.00455   0.00000
  30        4YZ         0.00000   0.00000   0.00000   0.00000  -0.00455
                          16        17        18        19        20
  16 2   N  1S          2.08042
  17        2S         -0.16874   0.47291
  18        2PX         0.00000   0.00000   0.37578
  19        2PY         0.00000   0.00000   0.00000   0.37578
  20        2PZ         0.05055  -0.09690   0.00000   0.00000   0.61545
  21        3S         -0.23971   0.52070   0.00000   0.00000  -0.43905
  22        3PX         0.00000   0.00000   0.21591   0.00000   0.00000
  23        3PY         0.00000   0.00000   0.00000   0.21591   0.00000
  24        3PZ         0.03355  -0.07327   0.00000   0.00000   0.23634
  25        4XX        -0.00490  -0.00551   0.00000   0.00000  -0.01192
  26        4YY        -0.00490  -0.00551   0.00000   0.00000  -0.01192
  27        4ZZ        -0.00519   0.00252   0.00000   0.00000   0.04875
  28        4XY         0.00000   0.00000   0.00000   0.00000   0.00000
  29        4XZ         0.00000   0.00000   0.04135   0.00000   0.00000
  30        4YZ         0.00000   0.00000   0.00000   0.04135   0.00000
                          21        22        23        24        25
  21        3S          0.76546
  22        3PX         0.00000   0.12406
  23        3PY         0.00000   0.00000   0.12406
  24        3PZ        -0.19967   0.00000   0.00000   0.09723
  25        4XX         0.00167   0.00000   0.00000  -0.00375   0.00039
  26        4YY         0.00167   0.00000   0.00000  -0.00375   0.00039
  27        4ZZ        -0.02565   0.00000   0.00000   0.01707  -0.00115
  28        4XY         0.00000   0.00000   0.00000   0.00000   0.00000
  29        4XZ         0.00000   0.02376   0.00000   0.00000   0.00000
  30        4YZ         0.00000   0.00000   0.02376   0.00000   0.00000
                          26        27        28        29        30
  26        4YY         0.00039
  27        4ZZ        -0.00115   0.00430
  28        4XY         0.00000   0.00000   0.00000
  29        4XZ         0.00000   0.00000   0.00000   0.00455
  30        4YZ         0.00000   0.00000   0.00000   0.00000   0.00455
    Full Mulliken population analysis:
                           1         2         3         4         5
   1 1   N  1S          2.08042
   2        2S         -0.03750   0.47291
   3        2PX         0.00000   0.00000   0.37578
   4        2PY         0.00000   0.00000   0.00000   0.37578
   5        2PZ         0.00000   0.00000   0.00000   0.00000   0.61545
   6        3S         -0.04120   0.40380   0.00000   0.00000   0.00000
   7        3PX         0.00000   0.00000   0.11212   0.00000   0.00000
   8        3PY         0.00000   0.00000   0.00000   0.11212   0.00000
   9        3PZ         0.00000   0.00000   0.00000   0.00000   0.12273
  10        4XX        -0.00025  -0.00351   0.00000   0.00000   0.00000
  11        4YY        -0.00025  -0.00351   0.00000   0.00000   0.00000
  12        4ZZ        -0.00026   0.00160   0.00000   0.00000   0.00000
  13        4XY         0.00000   0.00000   0.00000   0.00000   0.00000
  14        4XZ         0.00000   0.00000   0.00000   0.00000   0.00000
  15        4YZ         0.00000   0.00000   0.00000   0.00000   0.00000
  16 2   N  1S          0.00000  -0.00053   0.00000   0.00000  -0.00428
  17        2S         -0.00053   0.00652   0.00000   0.00000   0.05951
  18        2PX         0.00000   0.00000   0.04803   0.00000   0.00000
  19        2PY         0.00000   0.00000   0.00000   0.04803   0.00000
  20        2PZ        -0.00428   0.05951   0.00000   0.00000   0.14420
  21        3S          0.00350  -0.04937   0.00000   0.00000  -0.00167
  22        3PX         0.00000   0.00000   0.05393   0.00000   0.00000
  23        3PY         0.00000   0.00000   0.00000   0.05393   0.00000
  24        3PZ        -0.00158   0.01861   0.00000   0.00000   0.01912
  25        4XX         0.00001  -0.00090   0.00000   0.00000  -0.00164
  26        4YY         0.00001  -0.00090   0.00000   0.00000  -0.00164
  27        4ZZ        -0.00166   0.01221   0.00000   0.00000   0.01459
  28        4XY         0.00000   0.00000   0.00000   0.00000   0.00000
  29        4XZ         0.00000   0.00000   0.01208   0.00000   0.00000
  30        4YZ         0.00000   0.00000   0.00000   0.01208   0.00000
                           6         7         8         9        10
   6        3S          0.76546
   7        3PX         0.00000   0.12406
   8        3PY         0.00000   0.00000   0.12406
   9        3PZ         0.00000   0.00000   0.00000   0.09723
  10        4XX         0.00112   0.00000   0.00000   0.00000   0.00039
  11        4YY         0.00112   0.00000   0.00000   0.00000   0.00013
  12        4ZZ        -0.01719   0.00000   0.00000   0.00000  -0.00038
  13        4XY         0.00000   0.00000   0.00000   0.00000   0.00000
  14        4XZ         0.00000   0.00000   0.00000   0.00000   0.00000
  15        4YZ         0.00000   0.00000   0.00000   0.00000   0.00000
  16 2   N  1S          0.00350   0.00000   0.00000  -0.00158   0.00001
  17        2S         -0.04937   0.00000   0.00000   0.01861  -0.00090
  18        2PX         0.00000   0.05393   0.00000   0.00000   0.00000
  19        2PY         0.00000   0.00000   0.05393   0.00000   0.00000
  20        2PZ        -0.00167   0.00000   0.00000   0.01912  -0.00164
  21        3S         -0.11870   0.00000   0.00000  -0.02660  -0.00044
  22        3PX         0.00000   0.07860   0.00000   0.00000   0.00000
  23        3PY         0.00000   0.00000   0.07860   0.00000   0.00000
  24        3PZ        -0.02660   0.00000   0.00000  -0.00396  -0.00160
  25        4XX        -0.00044   0.00000   0.00000  -0.00160   0.00006
  26        4YY        -0.00044   0.00000   0.00000  -0.00160   0.00002
  27        4ZZ         0.00384   0.00000   0.00000   0.00481  -0.00028
  28        4XY         0.00000   0.00000   0.00000   0.00000   0.00000
  29        4XZ         0.00000   0.00537   0.00000   0.00000   0.00000
  30        4YZ         0.00000   0.00000   0.00537   0.00000   0.00000
                          11        12        13        14        15
  11        4YY         0.00039
  12        4ZZ        -0.00038   0.00430
  13        4XY         0.00000   0.00000   0.00000
  14        4XZ         0.00000   0.00000   0.00000   0.00455
  15        4YZ         0.00000   0.00000   0.00000   0.00000   0.00455
  16 2   N  1S          0.00001  -0.00166   0.00000   0.00000   0.00000
  17        2S         -0.00090   0.01221   0.00000   0.00000   0.00000
  18        2PX         0.00000   0.00000   0.00000   0.01208   0.00000
  19        2PY         0.00000   0.00000   0.00000   0.00000   0.01208
  20        2PZ        -0.00164   0.01459   0.00000   0.00000   0.00000
  21        3S         -0.00044   0.00384   0.00000   0.00000   0.00000
  22        3PX         0.00000   0.00000   0.00000   0.00537   0.00000
  23        3PY         0.00000   0.00000   0.00000   0.00000   0.00537
  24        3PZ        -0.00160   0.00481   0.00000   0.00000   0.00000
  25        4XX         0.00002  -0.00028   0.00000   0.00000   0.00000
  26        4YY         0.00006  -0.00028   0.00000   0.00000   0.00000
  27        4ZZ        -0.00028   0.00146   0.00000   0.00000   0.00000
  28        4XY         0.00000   0.00000   0.00000   0.00000   0.00000
  29        4XZ         0.00000   0.00000   0.00000   0.00199   0.00000
  30        4YZ         0.00000   0.00000   0.00000   0.00000   0.00199
                          16        17        18        19        20
  16 2   N  1S          2.08042
  17        2S         -0.03750   0.47291
  18        2PX         0.00000   0.00000   0.37578
  19        2PY         0.00000   0.00000   0.00000   0.37578
  20        2PZ         0.00000   0.00000   0.00000   0.00000   0.61545
  21        3S         -0.04120   0.40380   0.00000   0.00000   0.00000
  22        3PX         0.00000   0.00000   0.11212   0.00000   0.00000
  23        3PY         0.00000   0.00000   0.00000   0.11212   0.00000
  24        3PZ         0.00000   0.00000   0.00000   0.00000   0.12273
  25        4XX        -0.00025  -0.00351   0.00000   0.00000   0.00000
  26        4YY        -0.00025  -0.00351   0.00000   0.00000   0.00000
  27        4ZZ        -0.00026   0.00160   0.00000   0.00000   0.00000
  28        4XY         0.00000   0.00000   0.00000   0.00000   0.00000
  29        4XZ         0.00000   0.00000   0.00000   0.00000   0.00000
  30        4YZ         0.00000   0.00000   0.00000   0.00000   0.00000
                          21        22        23        24        25
  21        3S          0.76546
  22        3PX         0.00000   0.12406
  23        3PY         0.00000   0.00000   0.12406
  24        3PZ         0.00000   0.00000   0.00000   0.09723
  25        4XX         0.00112   0.00000   0.00000   0.00000   0.00039
  26        4YY         0.00112   0.00000   0.00000   0.00000   0.00013
  27        4ZZ        -0.01719   0.00000   0.00000   0.00000  -0.00038
  28        4XY         0.00000   0.00000   0.00000   0.00000   0.00000
  29        4XZ         0.00000   0.00000   0.00000   0.00000   0.00000
  30        4YZ         0.00000   0.00000   0.00000   0.00000   0.00000
                          26        27        28        29        30
  26        4YY         0.00039
  27        4ZZ        -0.00038   0.00430
  28        4XY         0.00000   0.00000   0.00000
  29        4XZ         0.00000   0.00000   0.00000   0.00455
  30        4YZ         0.00000   0.00000   0.00000   0.00000   0.00455
     Gross orbital populations:
                           1
   1 1   N  1S          1.99643
   2        2S          0.87896
   3        2PX         0.60194
   4        2PY         0.60194
   5        2PZ         0.96636
   6        3S          0.92324
   7        3PX         0.37408
   8        3PY         0.37408
   9        3PZ         0.22715
  10        4XX        -0.00727
  11        4YY        -0.00727
  12        4ZZ         0.02239
  13        4XY         0.00000
  14        4XZ         0.02398
  15        4YZ         0.02398
  16 2   N  1S          1.99643
  17        2S          0.87896
  18        2PX         0.60194
  19        2PY         0.60194
  20        2PZ         0.96636
  21        3S          0.92324
  22        3PX         0.37408
  23        3PY         0.37408
  24        3PZ         0.22715
  25        4XX        -0.00727
  26        4YY        -0.00727
  27        4ZZ         0.02239
  28        4XY         0.00000
  29        4XZ         0.02398
  30        4YZ         0.02398
          Condensed to atoms (all electrons):
               1          2
     1  N    6.345985   0.654015
     2  N    0.654015   6.345985
 Mulliken charges:
               1
     1  N    0.000000
     2  N    0.000000
 Sum of Mulliken charges =   0.00000
 Mulliken charges with hydrogens summed into heavy atoms:
               1
     1  N    0.000000
     2  N    0.000000
 Atomic Valencies and Mayer Atomic Bond Orders:
               1          2
     1  N    2.800367   2.800367
     2  N    2.800367   2.800367
 Lowdin Atomic Charges:
               1
     1  N    0.000000
     2  N    0.000000
 Sum of Lowdin charges  =   0.00000
 Lowdin atomic charges with hydrogens summed into heavy atoms:
               1
     1  N    0.000000
     2  N    0.000000
 Sum of Lowdin charges  =   0.00000
 Dipole moment from Lowdin charges (Debye):
    X=     0.0000    Y=     0.0000    Z=     0.0000  Tot=     0.0000
 Electronic spatial extent (au):  <R**2>=             39.0094
 Charge=              0.0000 electrons
 Dipole moment (field-independent basis, Debye):
    X=              0.0000    Y=              0.0000    Z=              0.0000  Tot=              0.0000
 Quadrupole moment (field-independent basis, Debye-Ang):
   XX=            -10.2536   YY=            -10.2536   ZZ=            -11.6941
   XY=              0.0000   XZ=              0.0000   YZ=              0.0000
 Traceless Quadrupole moment (field-independent basis, Debye-Ang):
   XX=              0.4801   YY=              0.4801   ZZ=             -0.9603
   XY=              0.0000   XZ=              0.0000   YZ=              0.0000
 Octapole moment (field-independent basis, Debye-Ang**2):
  XXX=              0.0000  YYY=              0.0000  ZZZ=              0.0000  XYY=              0.0000
  XXY=              0.0000  XXZ=              0.0000  XZZ=              0.0000  YZZ=              0.0000
  YYZ=              0.0000  XYZ=              0.0000
 Hexadecapole moment (field-independent basis, Debye-Ang**3):
 XXXX=             -8.3638 YYYY=             -8.3638 ZZZZ=            -30.7810 XXXY=              0.0000
 XXXZ=              0.0000 YYYX=              0.0000 YYYZ=              0.0000 ZZZX=              0.0000
 ZZZY=              0.0000 XXYY=             -2.7879 XXZZ=             -6.1200 YYZZ=             -6.1200
 XXYZ=              0.0000 YYXZ=              0.0000 ZZXY=              0.0000
 N-N= 2.361537633963D+01 E-N=-3.025697669710D+02  KE= 1.084403919315D+02
 Symmetry AG   KE= 5.318766297528D+01
 Symmetry B1G  KE= 1.378059742321D-34
 Symmetry B2G  KE= 1.089679719368D-32
 Symmetry B3G  KE= 3.077636831361D-32
 Symmetry AU   KE= 5.231380868285D-34
 Symmetry B1U  KE= 4.878786518791D+01
 Symmetry B2U  KE= 3.232431884143D+00
 Symmetry B3U  KE= 3.232431884143D+00
 Orbital energies and kinetic energies (alpha):
                                 1                 2
   1 (SGG)--O                -15.696732         22.070226
   2 (SGU)--O                -15.693328         22.108134
   3 (SGG)--O                 -1.473604          2.512937
   4 (SGU)--O                 -0.776379          2.285799
   5 (SGG)--O                 -0.630011          2.010669
   6 (PIU)--O                 -0.611628          1.616216
   7 (PIU)--O                 -0.611628          1.616216
   8 (PIG)--V                  0.170260          1.753577
   9 (PIG)--V                  0.170260          1.753577
  10 (SGU)--V                  0.585190          1.412148
  11 (SGG)--V                  0.774364          1.450284
  12 (PIU)--V                  0.836601          2.382540
  13 (PIU)--V                  0.836601          2.382540
  14 (SGG)--V                  0.838008          2.044904
  15 (PIG)--V                  1.014741          2.984179
  16 (PIG)--V                  1.014741          2.984179
  17 (SGU)--V                  1.069845          3.193054
  18 (SGU)--V                  1.490007          3.165395
  19 (DLTG)--V                 1.717831          2.591143
  20 (DLTG)--V                 1.717831          2.591143
  21 (PIU)--V                  1.853192          3.040980
  22 (PIU)--V                  1.853192          3.040980
  23 (DLTU)--V                 2.258955          3.099736
  24 (DLTU)--V                 2.258955          3.099736
  25 (SGG)--V                  2.733664          4.125959
  26 (PIG)--V                  2.943614          3.965170
  27 (PIG)--V                  2.943614          3.965170
  28 (SGU)--V                  3.229520          6.134394
  29 (SGG)--V                  3.679754          8.459290
  30 (SGU)--V                  3.989653          9.682191
 Total kinetic energy from orbitals= 1.084403919315D+02
 No NMR shielding tensors so no spin-rotation constants.
 Leave Link  601 at Wed Mar 25 12:53:44 2026, MaxMem=    33554432 cpu:         0.0
 (Enter /opt/g09/g09/l701.exe)
 Compute integral first derivatives.
 ... and contract with generalized density number  0.
 Leave Link  701 at Wed Mar 25 12:53:44 2026, MaxMem=    33554432 cpu:         0.0
 (Enter /opt/g09/g09/l702.exe)
 L702 exits ... SP integral derivatives will be done elsewhere.
 Leave Link  702 at Wed Mar 25 12:53:44 2026, MaxMem=    33554432 cpu:         0.0
 (Enter /opt/g09/g09/l703.exe)
 Compute integral first derivatives, UseDBF=F ICtDFT=           0.
 Integral derivatives from FoFJK, PRISM(SPDF).
 Calling FoFJK, ICntrl=      2127 FMM=F ISym2X=1 I1Cent= 0 IOpClX= 0 NMat=1 NMatS=1 NMatT=0.
 FoFJK:  IHMeth= 1 ICntrl=    2127 DoSepK=F KAlg= 0 I1Cent=   0 FoldK=F
 IRaf=         0 NMat=   1 IRICut=       1 DoRegI=T DoRafI=F ISym2E= 1.
 FoFCou: FMM=F IPFlag=           0 FMFlag=      100000 FMFlg1=         800
         NFxFlg=           0 DoJE=F BraDBF=F KetDBF=F FulRan=T
         wScrn=  0.000000 ICntrl=    2127 IOpCl=  0 I1Cent=           0 NGrid=           0
         NMat0=    1 NMatS0=      1 NMatT0=    0 NMatD0=    1 NMtDS0=    0 NMtDT0=    0
 Petite list used in FoFCou.
 Leave Link  703 at Wed Mar 25 12:53:44 2026, MaxMem=    33554432 cpu:         0.0
 (Enter /opt/g09/g09/l716.exe)
 Dipole        =-1.38050658D-30 0.00000000D+00 0.00000000D+00
 ***** Axes restored to original set *****
 -------------------------------------------------------------------
 Center     Atomic                   Forces (Hartrees/Bohr)
 Number     Number              X              Y              Z
 -------------------------------------------------------------------
      1        7           0.000000000    0.000000000    0.069980167
      2        7           0.000000000    0.000000000   -0.069980167
 -------------------------------------------------------------------
 Cartesian Forces:  Max     0.069980167 RMS     0.040403068
 Leave Link  716 at Wed Mar 25 12:53:44 2026, MaxMem=    33554432 cpu:         0.0
 (Enter /opt/g09/g09/l103.exe)

 GradGradGradGradGradGradGradGradGradGradGradGradGradGradGradGradGradGrad
 Berny optimization.
 FormGI is forming the generalized inverse of G from B-inverse, IUseBI=4.
 Internal  Forces:  Max     0.069980167 RMS     0.069980167
 Search for a local minimum.
 Step number   1 out of a maximum of   20
 All quantities printed in internal units (Hartrees-Bohrs-Radians)
 RMS Force = .69980D-01 SwitMx=.10000D-02 MixMth= 1
 Mixed Optimization -- RFO/linear search
 Second derivative matrix not updated -- first step.
 The second derivative matrix:
                          R1
           R1           1.78752
 ITU=  0
     Eigenvalues ---    1.78752
 RFO step:  Lambda=-2.73549621D-03 EMin= 1.78751513D+00
 Linear search not attempted -- first point.
 Iteration  1 RMS(Cart)=  0.02764052 RMS(Int)=  0.00000000
 Iteration  2 RMS(Cart)=  0.00000000 RMS(Int)=  0.00000000
 ITry= 1 IFail=0 DXMaxC= 1.95D-02 DCOld= 1.00D+10 DXMaxT= 3.00D-01 DXLimC= 3.00D+00 Rises=F
 ClnCor:  largest displacement from symmetrization is 3.67D-18 for atom     1.
 Variable       Old X    -DE/DX   Delta X   Delta X   Delta X     New X
                                 (Linear)    (Quad)   (Total)
    R1        2.07492  -0.06998   0.00000  -0.03909  -0.03909   2.03583
         Item               Value     Threshold  Converged?
 Maximum Force            0.069980     0.000450     NO 
 RMS     Force            0.069980     0.000300     NO 
 Maximum Displacement     0.019545     0.001800     NO 
 RMS     Displacement     0.027641     0.001200     NO 
 Predicted change in Energy=-1.369838D-03
 Lowest energy point so far.  Saving SCF results.
 GradGradGradGradGradGradGradGradGradGradGradGradGradGradGradGradGradGrad

 Leave Link  103 at Wed Mar 25 12:53:44 2026, MaxMem=    33554432 cpu:         0.0
 (Enter /opt/g09/g09/l202.exe)
                          Input orientation:                          
 ---------------------------------------------------------------------
 Center     Atomic      Atomic             Coordinates (Angstroms)
 Number     Number       Type             X           Y           Z
 ---------------------------------------------------------------------
      1          7           0        0.000000    0.000000    0.010343
      2          7           0        0.000000    0.000000    1.087657
 ---------------------------------------------------------------------
 Stoichiometry    N2
 Framework group  D*H[C*(N.N)]
 Deg. of freedom     1
 Full point group                 D*H     NOp   8
 RotChk:  IX=0 Diff= 0.00D+00
 Largest Abelian subgroup         D2H     NOp   8
 Largest concise Abelian subgroup C2      NOp   2
                         Standard orientation:                         
 ---------------------------------------------------------------------
 Center     Atomic      Atomic             Coordinates (Angstroms)
 Number     Number       Type             X           Y           Z
 ---------------------------------------------------------------------
      1          7           0        0.000000    0.000000    0.538657
      2          7           0        0.000000    0.000000   -0.538657
 ---------------------------------------------------------------------
 Rotational constants (GHZ):      0.0000000     62.1925914     62.1925914
 Leave Link  202 at Wed Mar 25 12:53:44 2026, MaxMem=    33554432 cpu:         0.0
 (Enter /opt/g09/g09/l301.exe)
 Standard basis: 6-31G(d) (6D, 7F)
 Ernie: Thresh=  0.10000D-02 Tol=  0.10000D-05 Strict=F.
 There are     8 symmetry adapted cartesian basis functions of AG  symmetry.
 There are     1 symmetry adapted cartesian basis functions of B1G symmetry.
 There are     3 symmetry adapted cartesian basis functions of B2G symmetry.
 There are     3 symmetry adapted cartesian basis functions of B3G symmetry.
 There are     1 symmetry adapted cartesian basis functions of AU  symmetry.
 There are     8 symmetry adapted cartesian basis functions of B1U symmetry.
 There are     3 symmetry adapted cartesian basis functions of B2U symmetry.
 There are     3 symmetry adapted cartesian basis functions of B3U symmetry.
 There are     8 symmetry adapted basis functions of AG  symmetry.
 There are     1 symmetry adapted basis functions of B1G symmetry.
 There are     3 symmetry adapted basis functions of B2G symmetry.
 There are     3 symmetry adapted basis functions of B3G symmetry.
 There are     1 symmetry adapted basis functions of AU  symmetry.
 There are     8 symmetry adapted basis functions of B1U symmetry.
 There are     3 symmetry adapted basis functions of B2U symmetry.
 There are     3 symmetry adapted basis functions of B3U symmetry.
    30 basis functions,    56 primitive gaussians,    30 cartesian basis functions
     7 alpha electrons        7 beta electrons
       nuclear repulsion energy        24.0688108451 Hartrees.
 IExCor=    0 DFT=F Ex=HF Corr=None ExCW=0 ScaHFX=  1.000000
 ScaDFX=  1.000000  1.000000  1.000000  1.000000 ScalE2=  1.000000  1.000000
 IRadAn=      0 IRanWt=     -1 IRanGd=            0 ICorTp=0 IEmpDi=  4
 NAtoms=    2 NActive=    2 NUniq=    1 SFac= 4.00D+00 NAtFMM=   60 NAOKFM=F Big=F
 Integral buffers will be    131072 words long.
 Raffenetti 1 integral format.
 Two-electron integral symmetry is turned on.
 Leave Link  301 at Wed Mar 25 12:53:44 2026, MaxMem=    33554432 cpu:         0.0
 (Enter /opt/g09/g09/l302.exe)
 NPDir=0 NMtPBC=     1 NCelOv=     1 NCel=       1 NClECP=     1 NCelD=      1
         NCelK=      1 NCelE2=     1 NClLst=     1 CellRange=     0.0.
 One-electron integrals computed using PRISM.
 One-electron integral symmetry used in STVInt
 NBasis=    30 RedAO= T EigKep=  5.61D-03  NBF=     8     1     3     3     1     8     3     3
 NBsUse=    30 1.00D-06 EigRej= -1.00D+00 NBFU=     8     1     3     3     1     8     3     3
 Leave Link  302 at Wed Mar 25 12:53:44 2026, MaxMem=    33554432 cpu:         0.0
 (Enter /opt/g09/g09/l303.exe)
 DipDrv:  MaxL=1.
 Leave Link  303 at Wed Mar 25 12:53:44 2026, MaxMem=    33554432 cpu:         0.0
 (Enter /opt/g09/g09/l401.exe)
 Initial guess from the checkpoint file:  "n2_hf.chk"
 B after Tr=     0.000000    0.000000    0.000000
         Rot=    1.000000    0.000000    0.000000    0.000000 Ang=   0.00 deg.
 Guess basis will be translated and rotated to current coordinates.
 JPrj=2 DoOrth=T DoCkMO=T.
 Initial guess orbital symmetries:
       Occupied  (SGG) (SGU) (SGG) (SGU) (SGG) (PIU) (PIU)
       Virtual   (SGG) (SGG) (SGG) (DLTG) (SGG) (DLTG) (PIG) (PIG)
                 (PIG) (PIG) (PIG) (PIG) (DLTU) (SGU) (SGU) (DLTU)
                 (SGU) (SGU) (SGU) (PIU) (PIU) (PIU) (PIU)
 The electronic state of the initial guess is 1-SGG.
 Leave Link  401 at Wed Mar 25 12:53:44 2026, MaxMem=    33554432 cpu:         0.0
 (Enter /opt/g09/g09/l502.exe)
 Closed shell SCF:
 Using DIIS extrapolation, IDIIS=  1040.
 Integral symmetry usage will be decided dynamically.
 Keep R1 ints in memory in symmetry-blocked form, NReq=959811.
 IVT=       21766 IEndB=       21766 NGot=    33554432 MDV=    33514620
 LenX=    33514620 LenY=    33513279
 Requested convergence on RMS density matrix=1.00D-08 within 128 cycles.
 Requested convergence on MAX density matrix=1.00D-06.
 Requested convergence on             energy=1.00D-06.
 No special actions if energy rises.
 FoFCou: FMM=F IPFlag=           0 FMFlag=           0 FMFlg1=           0
         NFxFlg=           0 DoJE=F BraDBF=F KetDBF=F FulRan=T
         wScrn=  0.000000 ICntrl=     600 IOpCl=  0 I1Cent=           0 NGrid=           0
         NMat0=    1 NMatS0=    465 NMatT0=    0 NMatD0=    1 NMtDS0=    0 NMtDT0=    0
 Petite list used in FoFCou.

 Cycle   1  Pass 1  IDiag  1:
 E= -108.943593181333    
 DIIS: error= 3.52D-03 at cycle   1 NSaved=   1.
 NSaved= 1 IEnMin= 1 EnMin= -108.943593181333     IErMin= 1 ErrMin= 3.52D-03
 ErrMax= 3.52D-03  0.00D+00 EMaxC= 1.00D-01 BMatC= 3.07D-04 BMatP= 3.07D-04
 IDIUse=3 WtCom= 9.65D-01 WtEn= 3.52D-02
 Coeff-Com:  0.100D+01
 Coeff-En:   0.100D+01
 Coeff:      0.100D+01
 Gap=     1.040 Goal=   None    Shift=    0.000
 GapD=    1.040 DampG=2.000 DampE=1.000 DampFc=2.0000 IDamp=-1.
 RMSDP=5.19D-04 MaxDP=3.06D-03              OVMax= 3.03D-03

 Cycle   2  Pass 1  IDiag  1:
 E= -108.943923560255     Delta-E=       -0.000330378922 Rises=F Damp=F
 DIIS: error= 1.07D-03 at cycle   2 NSaved=   2.
 NSaved= 2 IEnMin= 2 EnMin= -108.943923560255     IErMin= 2 ErrMin= 1.07D-03
 ErrMax= 1.07D-03  0.00D+00 EMaxC= 1.00D-01 BMatC= 2.20D-05 BMatP= 3.07D-04
 IDIUse=3 WtCom= 9.89D-01 WtEn= 1.07D-02
 Coeff-Com:  0.710D-01 0.929D+00
 Coeff-En:   0.000D+00 0.100D+01
 Coeff:      0.702D-01 0.930D+00
 Gap=     0.802 Goal=   None    Shift=    0.000
 RMSDP=1.84D-04 MaxDP=1.54D-03 DE=-3.30D-04 OVMax= 1.72D-03

 Cycle   3  Pass 1  IDiag  1:
 E= -108.943943815529     Delta-E=       -0.000020255274 Rises=F Damp=F
 DIIS: error= 2.04D-04 at cycle   3 NSaved=   3.
 NSaved= 3 IEnMin= 3 EnMin= -108.943943815529     IErMin= 3 ErrMin= 2.04D-04
 ErrMax= 2.04D-04  0.00D+00 EMaxC= 1.00D-01 BMatC= 1.04D-06 BMatP= 2.20D-05
 IDIUse=3 WtCom= 9.98D-01 WtEn= 2.04D-03
 Coeff-Com: -0.579D-01-0.892D-01 0.115D+01
 Coeff-En:   0.000D+00 0.000D+00 0.100D+01
 Coeff:     -0.577D-01-0.890D-01 0.115D+01
 Gap=     0.802 Goal=   None    Shift=    0.000
 RMSDP=6.76D-05 MaxDP=6.38D-04 DE=-2.03D-05 OVMax= 4.76D-04

 Cycle   4  Pass 1  IDiag  1:
 E= -108.943945416105     Delta-E=       -0.000001600576 Rises=F Damp=F
 DIIS: error= 1.69D-05 at cycle   4 NSaved=   4.
 NSaved= 4 IEnMin= 4 EnMin= -108.943945416105     IErMin= 4 ErrMin= 1.69D-05
 ErrMax= 1.69D-05  0.00D+00 EMaxC= 1.00D-01 BMatC= 5.48D-09 BMatP= 1.04D-06
 IDIUse=1 WtCom= 1.00D+00 WtEn= 0.00D+00
 Coeff-Com:  0.825D-02 0.531D-02-0.177D+00 0.116D+01
 Coeff:      0.825D-02 0.531D-02-0.177D+00 0.116D+01
 Gap=     0.802 Goal=   None    Shift=    0.000
 RMSDP=1.15D-05 MaxDP=1.43D-04 DE=-1.60D-06 OVMax= 4.02D-05

 Cycle   5  Pass 1  IDiag  1:
 E= -108.943945425482     Delta-E=       -0.000000009377 Rises=F Damp=F
 DIIS: error= 2.50D-06 at cycle   5 NSaved=   5.
 NSaved= 5 IEnMin= 5 EnMin= -108.943945425482     IErMin= 5 ErrMin= 2.50D-06
 ErrMax= 2.50D-06  0.00D+00 EMaxC= 1.00D-01 BMatC= 8.94D-11 BMatP= 5.48D-09
 IDIUse=1 WtCom= 1.00D+00 WtEn= 0.00D+00
 Coeff-Com: -0.145D-02-0.783D-03 0.336D-01-0.295D+00 0.126D+01
 Coeff:     -0.145D-02-0.783D-03 0.336D-01-0.295D+00 0.126D+01
 Gap=     0.802 Goal=   None    Shift=    0.000
 RMSDP=1.10D-06 MaxDP=1.28D-05 DE=-9.38D-09 OVMax= 5.40D-06

 Cycle   6  Pass 1  IDiag  1:
 E= -108.943945425637     Delta-E=       -0.000000000154 Rises=F Damp=F
 DIIS: error= 2.76D-07 at cycle   6 NSaved=   6.
 NSaved= 6 IEnMin= 6 EnMin= -108.943945425637     IErMin= 6 ErrMin= 2.76D-07
 ErrMax= 2.76D-07  0.00D+00 EMaxC= 1.00D-01 BMatC= 8.57D-13 BMatP= 8.94D-11
 IDIUse=1 WtCom= 1.00D+00 WtEn= 0.00D+00
 Coeff-Com:  0.252D-03 0.151D-03-0.595D-02 0.561D-01-0.300D+00 0.125D+01
 Coeff:      0.252D-03 0.151D-03-0.595D-02 0.561D-01-0.300D+00 0.125D+01
 Gap=     0.802 Goal=   None    Shift=    0.000
 RMSDP=7.53D-08 MaxDP=8.57D-07 DE=-1.54D-10 OVMax= 6.97D-07

 Cycle   7  Pass 1  IDiag  1:
 E= -108.943945425638     Delta-E=       -0.000000000001 Rises=F Damp=F
 DIIS: error= 8.10D-09 at cycle   7 NSaved=   7.
 NSaved= 7 IEnMin= 7 EnMin= -108.943945425638     IErMin= 7 ErrMin= 8.10D-09
 ErrMax= 8.10D-09  0.00D+00 EMaxC= 1.00D-01 BMatC= 6.83D-16 BMatP= 8.57D-13
 IDIUse=1 WtCom= 1.00D+00 WtEn= 0.00D+00
 Coeff-Com: -0.160D-04-0.962D-05 0.382D-03-0.364D-02 0.205D-01-0.103D+00
 Coeff-Com:  0.109D+01
 Coeff:     -0.160D-04-0.962D-05 0.382D-03-0.364D-02 0.205D-01-0.103D+00
 Coeff:      0.109D+01
 Gap=     0.802 Goal=   None    Shift=    0.000
 RMSDP=2.12D-09 MaxDP=2.88D-08 DE=-1.42D-12 OVMax= 1.53D-08

 SCF Done:  E(RHF) =  -108.943945426     A.U. after    7 cycles
            NFock=  7  Conv=0.21D-08     -V/T= 2.0033
 KE= 1.085822636217D+02 PE=-3.035913662586D+02 EE= 6.199634636620D+01
 Leave Link  502 at Wed Mar 25 12:53:45 2026, MaxMem=    33554432 cpu:         0.0
 (Enter /opt/g09/g09/l701.exe)
 Compute integral first derivatives.
 ... and contract with generalized density number  0.
 Leave Link  701 at Wed Mar 25 12:53:45 2026, MaxMem=    33554432 cpu:         0.0
 (Enter /opt/g09/g09/l702.exe)
 L702 exits ... SP integral derivatives will be done elsewhere.
 Leave Link  702 at Wed Mar 25 12:53:45 2026, MaxMem=    33554432 cpu:         0.0
 (Enter /opt/g09/g09/l703.exe)
 Compute integral first derivatives, UseDBF=F ICtDFT=           0.
 Integral derivatives from FoFJK, PRISM(SPDF).
 Calling FoFJK, ICntrl=      2127 FMM=F ISym2X=1 I1Cent= 0 IOpClX= 0 NMat=1 NMatS=1 NMatT=0.
 FoFJK:  IHMeth= 1 ICntrl=    2127 DoSepK=F KAlg= 0 I1Cent=   0 FoldK=F
 IRaf=         0 NMat=   1 IRICut=       1 DoRegI=T DoRafI=F ISym2E= 1.
 FoFCou: FMM=F IPFlag=           0 FMFlag=      100000 FMFlg1=         800
         NFxFlg=           0 DoJE=F BraDBF=F KetDBF=F FulRan=T
         wScrn=  0.000000 ICntrl=    2127 IOpCl=  0 I1Cent=           0 NGrid=           0
         NMat0=    1 NMatS0=      1 NMatT0=    0 NMatD0=    1 NMtDS0=    0 NMtDT0=    0
 Petite list used in FoFCou.
 Leave Link  703 at Wed Mar 25 12:53:45 2026, MaxMem=    33554432 cpu:         0.0
 (Enter /opt/g09/g09/l716.exe)
 Dipole        =-2.07075988D-30-3.85185989D-34 0.00000000D+00
 ***** Axes restored to original set *****
 -------------------------------------------------------------------
 Center     Atomic                   Forces (Hartrees/Bohr)
 Number     Number              X              Y              Z
 -------------------------------------------------------------------
      1        7           0.000000000    0.000000000   -0.004047686
      2        7           0.000000000    0.000000000    0.004047686
 -------------------------------------------------------------------
 Cartesian Forces:  Max     0.004047686 RMS     0.002336933
 Leave Link  716 at Wed Mar 25 12:53:45 2026, MaxMem=    33554432 cpu:         0.0
 (Enter /opt/g09/g09/l103.exe)

 GradGradGradGradGradGradGradGradGradGradGradGradGradGradGradGradGradGrad
 Berny optimization.
 Using GEDIIS/GDIIS optimizer.
 Red2BG is reusing G-inverse.
 Internal  Forces:  Max     0.004047686 RMS     0.004047686
 Search for a local minimum.
 Step number   2 out of a maximum of   20
 All quantities printed in internal units (Hartrees-Bohrs-Radians)
 RMS Force = .40477D-02 SwitMx=.10000D-02 MixMth= 1
 Mixed Optimization -- RFO/linear search
 Update second derivatives using D2CorX and points    1    2
 DE= -1.32D-03 DEPred=-1.37D-03 R= 9.66D-01
 TightC=F SS=  1.41D+00  RLast= 3.91D-02 DXNew= 5.0454D-01 1.1727D-01
 Trust test= 9.66D-01 RLast= 3.91D-02 DXMaxT set to 3.00D-01
 The second derivative matrix:
                          R1
           R1           1.89380
 ITU=  1  0
 Use linear search instead of GDIIS.
     Eigenvalues ---    1.89380
 RFO step:  Lambda= 0.00000000D+00 EMin= 1.89379958D+00
 Quartic linear search produced a step of -0.05122.
 Iteration  1 RMS(Cart)=  0.00141568 RMS(Int)=  0.00000000
 Iteration  2 RMS(Cart)=  0.00000000 RMS(Int)=  0.00000000
 ITry= 1 IFail=0 DXMaxC= 1.00D-03 DCOld= 1.00D+10 DXMaxT= 3.00D-01 DXLimC= 3.00D+00 Rises=F
 ClnCor:  largest displacement from symmetrization is 6.13D-20 for atom     1.
 Variable       Old X    -DE/DX   Delta X   Delta X   Delta X     New X
                                 (Linear)    (Quad)   (Total)
    R1        2.03583   0.00405   0.00200   0.00000   0.00200   2.03783
         Item               Value     Threshold  Converged?
 Maximum Force            0.004048     0.000450     NO 
 RMS     Force            0.004048     0.000300     NO 
 Maximum Displacement     0.001001     0.001800     YES
 RMS     Displacement     0.001416     0.001200     NO 
 Predicted change in Energy=-4.308307D-06
 Lowest energy point so far.  Saving SCF results.
 GradGradGradGradGradGradGradGradGradGradGradGradGradGradGradGradGradGrad

 Leave Link  103 at Wed Mar 25 12:53:45 2026, MaxMem=    33554432 cpu:         0.0
 (Enter /opt/g09/g09/l202.exe)
                          Input orientation:                          
 ---------------------------------------------------------------------
 Center     Atomic      Atomic             Coordinates (Angstroms)
 Number     Number       Type             X           Y           Z
 ---------------------------------------------------------------------
      1          7           0        0.000000    0.000000    0.009813
      2          7           0        0.000000    0.000000    1.088187
 ---------------------------------------------------------------------
 Stoichiometry    N2
 Framework group  D*H[C*(N.N)]
 Deg. of freedom     1
 Full point group                 D*H     NOp   8
 RotChk:  IX=0 Diff= 0.00D+00
 Largest Abelian subgroup         D2H     NOp   8
 Largest concise Abelian subgroup C2      NOp   2
                         Standard orientation:                         
 ---------------------------------------------------------------------
 Center     Atomic      Atomic             Coordinates (Angstroms)
 Number     Number       Type             X           Y           Z
 ---------------------------------------------------------------------
      1          7           0        0.000000    0.000000    0.539187
      2          7           0        0.000000    0.000000   -0.539187
 ---------------------------------------------------------------------
 Rotational constants (GHZ):      0.0000000     62.0704492     62.0704492
 Leave Link  202 at Wed Mar 25 12:53:45 2026, MaxMem=    33554432 cpu:         0.0
 (Enter /opt/g09/g09/l301.exe)
 Standard basis: 6-31G(d) (6D, 7F)
 Ernie: Thresh=  0.10000D-02 Tol=  0.10000D-05 Strict=F.
 There are     8 symmetry adapted cartesian basis functions of AG  symmetry.
 There are     1 symmetry adapted cartesian basis functions of B1G symmetry.
 There are     3 symmetry adapted cartesian basis functions of B2G symmetry.
 There are     3 symmetry adapted cartesian basis functions of B3G symmetry.
 There are     1 symmetry adapted cartesian basis functions of AU  symmetry.
 There are     8 symmetry adapted cartesian basis functions of B1U symmetry.
 There are     3 symmetry adapted cartesian basis functions of B2U symmetry.
 There are     3 symmetry adapted cartesian basis functions of B3U symmetry.
 There are     8 symmetry adapted basis functions of AG  symmetry.
 There are     1 symmetry adapted basis functions of B1G symmetry.
 There are     3 symmetry adapted basis functions of B2G symmetry.
 There are     3 symmetry adapted basis functions of B3G symmetry.
 There are     1 symmetry adapted basis functions of AU  symmetry.
 There are     8 symmetry adapted basis functions of B1U symmetry.
 There are     3 symmetry adapted basis functions of B2U symmetry.
 There are     3 symmetry adapted basis functions of B3U symmetry.
    30 basis functions,    56 primitive gaussians,    30 cartesian basis functions
     7 alpha electrons        7 beta electrons
       nuclear repulsion energy        24.0451644487 Hartrees.
 IExCor=    0 DFT=F Ex=HF Corr=None ExCW=0 ScaHFX=  1.000000
 ScaDFX=  1.000000  1.000000  1.000000  1.000000 ScalE2=  1.000000  1.000000
 IRadAn=      0 IRanWt=     -1 IRanGd=            0 ICorTp=0 IEmpDi=  4
 NAtoms=    2 NActive=    2 NUniq=    1 SFac= 4.00D+00 NAtFMM=   60 NAOKFM=F Big=F
 Integral buffers will be    131072 words long.
 Raffenetti 1 integral format.
 Two-electron integral symmetry is turned on.
 Leave Link  301 at Wed Mar 25 12:53:45 2026, MaxMem=    33554432 cpu:         0.0
 (Enter /opt/g09/g09/l302.exe)
 NPDir=0 NMtPBC=     1 NCelOv=     1 NCel=       1 NClECP=     1 NCelD=      1
         NCelK=      1 NCelE2=     1 NClLst=     1 CellRange=     0.0.
 One-electron integrals computed using PRISM.
 One-electron integral symmetry used in STVInt
 NBasis=    30 RedAO= T EigKep=  5.64D-03  NBF=     8     1     3     3     1     8     3     3
 NBsUse=    30 1.00D-06 EigRej= -1.00D+00 NBFU=     8     1     3     3     1     8     3     3
 Leave Link  302 at Wed Mar 25 12:53:45 2026, MaxMem=    33554432 cpu:         0.0
 (Enter /opt/g09/g09/l303.exe)
 DipDrv:  MaxL=1.
 Leave Link  303 at Wed Mar 25 12:53:45 2026, MaxMem=    33554432 cpu:         0.0
 (Enter /opt/g09/g09/l401.exe)
 Initial guess from the checkpoint file:  "n2_hf.chk"
 B after Tr=     0.000000    0.000000    0.000000
         Rot=    1.000000    0.000000    0.000000    0.000000 Ang=   0.00 deg.
 Guess basis will be translated and rotated to current coordinates.
 JPrj=2 DoOrth=T DoCkMO=T.
 Initial guess orbital symmetries:
       Occupied  (SGG) (SGU) (SGG) (SGU) (SGG) (PIU) (PIU)
       Virtual   (SGG) (SGG) (SGG) (DLTG) (SGG) (DLTG) (PIG) (PIG)
                 (PIG) (PIG) (PIG) (PIG) (DLTU) (SGU) (SGU) (DLTU)
                 (SGU) (SGU) (SGU) (PIU) (PIU) (PIU) (PIU)
 The electronic state of the initial guess is 1-SGG.
 Leave Link  401 at Wed Mar 25 12:53:45 2026, MaxMem=    33554432 cpu:         0.0
 (Enter /opt/g09/g09/l502.exe)
 Closed shell SCF:
 Using DIIS extrapolation, IDIIS=  1040.
 Integral symmetry usage will be decided dynamically.
 Keep R1 ints in memory in symmetry-blocked form, NReq=959811.
 IVT=       21766 IEndB=       21766 NGot=    33554432 MDV=    33514620
 LenX=    33514620 LenY=    33513279
 Requested convergence on RMS density matrix=1.00D-08 within 128 cycles.
 Requested convergence on MAX density matrix=1.00D-06.
 Requested convergence on             energy=1.00D-06.
 No special actions if energy rises.
 FoFCou: FMM=F IPFlag=           0 FMFlag=           0 FMFlg1=           0
         NFxFlg=           0 DoJE=F BraDBF=F KetDBF=F FulRan=T
         wScrn=  0.000000 ICntrl=     600 IOpCl=  0 I1Cent=           0 NGrid=           0
         NMat0=    1 NMatS0=    465 NMatT0=    0 NMatD0=    1 NMtDS0=    0 NMtDT0=    0
 Petite list used in FoFCou.

 Cycle   1  Pass 1  IDiag  1:
 E= -108.943948528812    
 DIIS: error= 1.85D-04 at cycle   1 NSaved=   1.
 NSaved= 1 IEnMin= 1 EnMin= -108.943948528812     IErMin= 1 ErrMin= 1.85D-04
 ErrMax= 1.85D-04  0.00D+00 EMaxC= 1.00D-01 BMatC= 8.19D-07 BMatP= 8.19D-07
 IDIUse=3 WtCom= 9.98D-01 WtEn= 1.85D-03
 Coeff-Com:  0.100D+01
 Coeff-En:   0.100D+01
 Coeff:      0.100D+01
 Gap=     1.039 Goal=   None    Shift=    0.000
 RMSDP=2.68D-05 MaxDP=1.60D-04              OVMax= 1.56D-04

 Cycle   2  Pass 1  IDiag  1:
 E= -108.943949412521     Delta-E=       -0.000000883709 Rises=F Damp=F
 DIIS: error= 5.48D-05 at cycle   2 NSaved=   2.
 NSaved= 2 IEnMin= 2 EnMin= -108.943949412521     IErMin= 2 ErrMin= 5.48D-05
 ErrMax= 5.48D-05  0.00D+00 EMaxC= 1.00D-01 BMatC= 5.88D-08 BMatP= 8.19D-07
 IDIUse=1 WtCom= 1.00D+00 WtEn= 0.00D+00
 Coeff-Com:  0.734D-01 0.927D+00
 Coeff:      0.734D-01 0.927D+00
 Gap=     0.801 Goal=   None    Shift=    0.000
 RMSDP=9.47D-06 MaxDP=7.92D-05 DE=-8.84D-07 OVMax= 8.85D-05

 Cycle   3  Pass 1  IDiag  1:
 E= -108.943949466526     Delta-E=       -0.000000054005 Rises=F Damp=F
 DIIS: error= 1.06D-05 at cycle   3 NSaved=   3.
 NSaved= 3 IEnMin= 3 EnMin= -108.943949466526     IErMin= 3 ErrMin= 1.06D-05
 ErrMax= 1.06D-05  0.00D+00 EMaxC= 1.00D-01 BMatC= 2.78D-09 BMatP= 5.88D-08
 IDIUse=1 WtCom= 1.00D+00 WtEn= 0.00D+00
[...]
  21        3S          0.04998  -0.12940   0.00000   0.00000   0.00548
  22        3PX         0.00000   0.00000   0.21280   0.00000   0.00000
  23        3PY         0.00000   0.00000   0.00000   0.21280   0.00000
  24        3PZ        -0.01281   0.03348   0.00000   0.00000  -0.16172
  25        4XX         0.00344  -0.00767   0.00000   0.00000   0.01110
  26        4YY         0.00344  -0.00767   0.00000   0.00000   0.01110
  27        4ZZ        -0.01369   0.02577   0.00000   0.00000  -0.03353
  28        4XY         0.00000   0.00000   0.00000   0.00000   0.00000
  29        4XZ         0.00000   0.00000   0.04193   0.00000   0.00000
  30        4YZ         0.00000   0.00000   0.00000   0.04193   0.00000
                           6         7         8         9        10
   6        3S          0.77054
   7        3PX         0.00000   0.11965
   8        3PY         0.00000   0.00000   0.11965
   9        3PZ         0.20241   0.00000   0.00000   0.09585
  10        4XX         0.00211   0.00000   0.00000   0.00391   0.00042
  11        4YY         0.00211   0.00000   0.00000   0.00391   0.00042
  12        4ZZ        -0.02577   0.00000   0.00000  -0.01687  -0.00121
  13        4XY         0.00000   0.00000   0.00000   0.00000   0.00000
  14        4XZ         0.00000  -0.02358   0.00000   0.00000   0.00000
  15        4YZ         0.00000   0.00000  -0.02358   0.00000   0.00000
  16 2   N  1S          0.04998   0.00000   0.00000   0.01281   0.00344
  17        2S         -0.12940   0.00000   0.00000  -0.03348  -0.00767
  18        2PX         0.00000   0.21280   0.00000   0.00000   0.00000
  19        2PY         0.00000   0.00000   0.21280   0.00000   0.00000
  20        2PZ        -0.00548   0.00000   0.00000  -0.16172  -0.01110
  21        3S         -0.19029   0.00000   0.00000   0.04208  -0.00126
  22        3PX         0.00000   0.11965   0.00000   0.00000   0.00000
  23        3PY         0.00000   0.00000   0.11965   0.00000   0.00000
  24        3PZ        -0.04208   0.00000   0.00000  -0.06909  -0.00336
  25        4XX        -0.00126   0.00000   0.00000   0.00336   0.00038
  26        4YY        -0.00126   0.00000   0.00000   0.00336   0.00038
  27        4ZZ         0.00806   0.00000   0.00000  -0.01122  -0.00110
  28        4XY         0.00000   0.00000   0.00000   0.00000   0.00000
  29        4XZ         0.00000   0.02358   0.00000   0.00000   0.00000
  30        4YZ         0.00000   0.00000   0.02358   0.00000   0.00000
                          11        12        13        14        15
  11        4YY         0.00042
  12        4ZZ        -0.00121   0.00431
  13        4XY         0.00000   0.00000   0.00000
  14        4XZ         0.00000   0.00000   0.00000   0.00465
  15        4YZ         0.00000   0.00000   0.00000   0.00000   0.00465
  16 2   N  1S          0.00344  -0.01369   0.00000   0.00000   0.00000
  17        2S         -0.00767   0.02577   0.00000   0.00000   0.00000
  18        2PX         0.00000   0.00000   0.00000  -0.04193   0.00000
  19        2PY         0.00000   0.00000   0.00000   0.00000  -0.04193
  20        2PZ        -0.01110   0.03353   0.00000   0.00000   0.00000
  21        3S         -0.00126   0.00806   0.00000   0.00000   0.00000
  22        3PX         0.00000   0.00000   0.00000  -0.02358   0.00000
  23        3PY         0.00000   0.00000   0.00000   0.00000  -0.02358
  24        3PZ        -0.00336   0.01122   0.00000   0.00000   0.00000
  25        4XX         0.00038  -0.00110   0.00000   0.00000   0.00000
  26        4YY         0.00038  -0.00110   0.00000   0.00000   0.00000
  27        4ZZ        -0.00110   0.00312   0.00000   0.00000   0.00000
  28        4XY         0.00000   0.00000   0.00000   0.00000   0.00000
  29        4XZ         0.00000   0.00000   0.00000  -0.00465   0.00000
  30        4YZ         0.00000   0.00000   0.00000   0.00000  -0.00465
                          16        17        18        19        20
  16 2   N  1S          2.08088
  17        2S         -0.16779   0.46779
  18        2PX         0.00000   0.00000   0.37846
  19        2PY         0.00000   0.00000   0.00000   0.37846
  20        2PZ         0.04880  -0.09486   0.00000   0.00000   0.62182
  21        3S         -0.23871   0.51631   0.00000   0.00000  -0.44648
  22        3PX         0.00000   0.00000   0.21280   0.00000   0.00000
  23        3PY         0.00000   0.00000   0.00000   0.21280   0.00000
  24        3PZ         0.03384  -0.07430   0.00000   0.00000   0.23530
  25        4XX        -0.00496  -0.00560   0.00000   0.00000  -0.01266
  26        4YY        -0.00496  -0.00560   0.00000   0.00000  -0.01266
  27        4ZZ        -0.00546   0.00299   0.00000   0.00000   0.04905
  28        4XY         0.00000   0.00000   0.00000   0.00000   0.00000
  29        4XZ         0.00000   0.00000   0.04193   0.00000   0.00000
  30        4YZ         0.00000   0.00000   0.00000   0.04193   0.00000
                          21        22        23        24        25
  21        3S          0.77054
  22        3PX         0.00000   0.11965
  23        3PY         0.00000   0.00000   0.11965
  24        3PZ        -0.20241   0.00000   0.00000   0.09585
  25        4XX         0.00211   0.00000   0.00000  -0.00391   0.00042
  26        4YY         0.00211   0.00000   0.00000  -0.00391   0.00042
  27        4ZZ        -0.02577   0.00000   0.00000   0.01687  -0.00121
  28        4XY         0.00000   0.00000   0.00000   0.00000   0.00000
  29        4XZ         0.00000   0.02358   0.00000   0.00000   0.00000
  30        4YZ         0.00000   0.00000   0.02358   0.00000   0.00000
                          26        27        28        29        30
  26        4YY         0.00042
  27        4ZZ        -0.00121   0.00431
  28        4XY         0.00000   0.00000   0.00000
  29        4XZ         0.00000   0.00000   0.00000   0.00465
  30        4YZ         0.00000   0.00000   0.00000   0.00000   0.00465
    Full Mulliken population analysis:
                           1         2         3         4         5
   1 1   N  1S          2.08088
   2        2S         -0.03729   0.46779
   3        2PX         0.00000   0.00000   0.37846
   4        2PY         0.00000   0.00000   0.00000   0.37846
   5        2PZ         0.00000   0.00000   0.00000   0.00000   0.62182
   6        3S         -0.04103   0.40040   0.00000   0.00000   0.00000
   7        3PX         0.00000   0.00000   0.11050   0.00000   0.00000
   8        3PY         0.00000   0.00000   0.00000   0.11050   0.00000
   9        3PZ         0.00000   0.00000   0.00000   0.00000   0.12219
  10        4XX        -0.00025  -0.00356   0.00000   0.00000   0.00000
  11        4YY        -0.00025  -0.00356   0.00000   0.00000   0.00000
  12        4ZZ        -0.00028   0.00190   0.00000   0.00000   0.00000
  13        4XY         0.00000   0.00000   0.00000   0.00000   0.00000
  14        4XZ         0.00000   0.00000   0.00000   0.00000   0.00000
  15        4YZ         0.00000   0.00000   0.00000   0.00000   0.00000
  16 2   N  1S          0.00000  -0.00065   0.00000   0.00000  -0.00488
  17        2S         -0.00065   0.00767   0.00000   0.00000   0.06327
  18        2PX         0.00000   0.00000   0.05164   0.00000   0.00000
  19        2PY         0.00000   0.00000   0.00000   0.05164   0.00000
  20        2PZ        -0.00488   0.06327   0.00000   0.00000   0.14713
  21        3S          0.00366  -0.05094   0.00000   0.00000  -0.00132
  22        3PX         0.00000   0.00000   0.05455   0.00000   0.00000
  23        3PY         0.00000   0.00000   0.00000   0.05455   0.00000
  24        3PZ        -0.00171   0.01907   0.00000   0.00000   0.01701
  25        4XX         0.00001  -0.00099   0.00000   0.00000  -0.00181
  26        4YY         0.00001  -0.00099   0.00000   0.00000  -0.00181
  27        4ZZ        -0.00180   0.01253   0.00000   0.00000   0.01468
  28        4XY         0.00000   0.00000   0.00000   0.00000   0.00000
  29        4XZ         0.00000   0.00000   0.01284   0.00000   0.00000
  30        4YZ         0.00000   0.00000   0.00000   0.01284   0.00000
                           6         7         8         9        10
   6        3S          0.77054
   7        3PX         0.00000   0.11965
   8        3PY         0.00000   0.00000   0.11965
   9        3PZ         0.00000   0.00000   0.00000   0.09585
  10        4XX         0.00141   0.00000   0.00000   0.00000   0.00042
  11        4YY         0.00141   0.00000   0.00000   0.00000   0.00014
  12        4ZZ        -0.01727   0.00000   0.00000   0.00000  -0.00040
  13        4XY         0.00000   0.00000   0.00000   0.00000   0.00000
  14        4XZ         0.00000   0.00000   0.00000   0.00000   0.00000
  15        4YZ         0.00000   0.00000   0.00000   0.00000   0.00000
  16 2   N  1S          0.00366   0.00000   0.00000  -0.00171   0.00001
  17        2S         -0.05094   0.00000   0.00000   0.01907  -0.00099
  18        2PX         0.00000   0.05455   0.00000   0.00000   0.00000
  19        2PY         0.00000   0.00000   0.05455   0.00000   0.00000
  20        2PZ        -0.00132   0.00000   0.00000   0.01701  -0.00181
  21        3S         -0.12252   0.00000   0.00000  -0.02542  -0.00042
  22        3PX         0.00000   0.07704   0.00000   0.00000   0.00000
  23        3PY         0.00000   0.00000   0.07704   0.00000   0.00000
  24        3PZ        -0.02542   0.00000   0.00000  -0.00532  -0.00166
  25        4XX        -0.00042   0.00000   0.00000  -0.00166   0.00007
  26        4YY        -0.00042   0.00000   0.00000  -0.00166   0.00002
  27        4ZZ         0.00369   0.00000   0.00000   0.00467  -0.00030
  28        4XY         0.00000   0.00000   0.00000   0.00000   0.00000
  29        4XZ         0.00000   0.00537   0.00000   0.00000   0.00000
  30        4YZ         0.00000   0.00000   0.00537   0.00000   0.00000
                          11        12        13        14        15
  11        4YY         0.00042
  12        4ZZ        -0.00040   0.00431
  13        4XY         0.00000   0.00000   0.00000
  14        4XZ         0.00000   0.00000   0.00000   0.00465
  15        4YZ         0.00000   0.00000   0.00000   0.00000   0.00465
  16 2   N  1S          0.00001  -0.00180   0.00000   0.00000   0.00000
  17        2S         -0.00099   0.01253   0.00000   0.00000   0.00000
  18        2PX         0.00000   0.00000   0.00000   0.01284   0.00000
  19        2PY         0.00000   0.00000   0.00000   0.00000   0.01284
  20        2PZ        -0.00181   0.01468   0.00000   0.00000   0.00000
  21        3S         -0.00042   0.00369   0.00000   0.00000   0.00000
  22        3PX         0.00000   0.00000   0.00000   0.00537   0.00000
  23        3PY         0.00000   0.00000   0.00000   0.00000   0.00537
  24        3PZ        -0.00166   0.00467   0.00000   0.00000   0.00000
  25        4XX         0.00002  -0.00030   0.00000   0.00000   0.00000
  26        4YY         0.00007  -0.00030   0.00000   0.00000   0.00000
  27        4ZZ        -0.00030   0.00146   0.00000   0.00000   0.00000
  28        4XY         0.00000   0.00000   0.00000   0.00000   0.00000
  29        4XZ         0.00000   0.00000   0.00000   0.00205   0.00000
  30        4YZ         0.00000   0.00000   0.00000   0.00000   0.00205
                          16        17        18        19        20
  16 2   N  1S          2.08088
  17        2S         -0.03729   0.46779
  18        2PX         0.00000   0.00000   0.37846
  19        2PY         0.00000   0.00000   0.00000   0.37846
  20        2PZ         0.00000   0.00000   0.00000   0.00000   0.62182
  21        3S         -0.04103   0.40040   0.00000   0.00000   0.00000
  22        3PX         0.00000   0.00000   0.11050   0.00000   0.00000
  23        3PY         0.00000   0.00000   0.00000   0.11050   0.00000
  24        3PZ         0.00000   0.00000   0.00000   0.00000   0.12219
  25        4XX        -0.00025  -0.00356   0.00000   0.00000   0.00000
  26        4YY        -0.00025  -0.00356   0.00000   0.00000   0.00000
  27        4ZZ        -0.00028   0.00190   0.00000   0.00000   0.00000
  28        4XY         0.00000   0.00000   0.00000   0.00000   0.00000
  29        4XZ         0.00000   0.00000   0.00000   0.00000   0.00000
  30        4YZ         0.00000   0.00000   0.00000   0.00000   0.00000
                          21        22        23        24        25
  21        3S          0.77054
  22        3PX         0.00000   0.11965
  23        3PY         0.00000   0.00000   0.11965
  24        3PZ         0.00000   0.00000   0.00000   0.09585
  25        4XX         0.00141   0.00000   0.00000   0.00000   0.00042
  26        4YY         0.00141   0.00000   0.00000   0.00000   0.00014
  27        4ZZ        -0.01727   0.00000   0.00000   0.00000  -0.00040
  28        4XY         0.00000   0.00000   0.00000   0.00000   0.00000
  29        4XZ         0.00000   0.00000   0.00000   0.00000   0.00000
  30        4YZ         0.00000   0.00000   0.00000   0.00000   0.00000
                          26        27        28        29        30
  26        4YY         0.00042
  27        4ZZ        -0.00040   0.00431
  28        4XY         0.00000   0.00000   0.00000
  29        4XZ         0.00000   0.00000   0.00000   0.00465
  30        4YZ         0.00000   0.00000   0.00000   0.00000   0.00465
     Gross orbital populations:
                           1
   1 1   N  1S          1.99644
   2        2S          0.87465
   3        2PX         0.60799
   4        2PY         0.60799
   5        2PZ         0.97628
   6        3S          0.92177
   7        3PX         0.36711
   8        3PY         0.36711
   9        3PZ         0.22301
  10        4XX        -0.00731
  11        4YY        -0.00731
  12        4ZZ         0.02248
  13        4XY         0.00000
  14        4XZ         0.02490
  15        4YZ         0.02490
  16 2   N  1S          1.99644
  17        2S          0.87465
  18        2PX         0.60799
  19        2PY         0.60799
  20        2PZ         0.97628
  21        3S          0.92177
  22        3PX         0.36711
  23        3PY         0.36711
  24        3PZ         0.22301
  25        4XX        -0.00731
  26        4YY        -0.00731
  27        4ZZ         0.02248
  28        4XY         0.00000
  29        4XZ         0.02490
  30        4YZ         0.02490
          Condensed to atoms (all electrons):
               1          2
     1  N    6.335902   0.664098
     2  N    0.664098   6.335902
 Mulliken charges:
               1
     1  N    0.000000
     2  N    0.000000
 Sum of Mulliken charges =   0.00000
 Mulliken charges with hydrogens summed into heavy atoms:
               1
     1  N    0.000000
     2  N    0.000000
 Atomic Valencies and Mayer Atomic Bond Orders:
               1          2
     1  N    2.795708   2.795708
     2  N    2.795708   2.795708
 Lowdin Atomic Charges:
               1
     1  N    0.000000
     2  N    0.000000
 Sum of Lowdin charges  =   0.00000
 Lowdin atomic charges with hydrogens summed into heavy atoms:
               1
     1  N    0.000000
     2  N    0.000000
 Sum of Lowdin charges  =   0.00000
 Dipole moment from Lowdin charges (Debye):
    X=     0.0000    Y=     0.0000    Z=     0.0000  Tot=     0.0000
 Electronic spatial extent (au):  <R**2>=             38.3522
 Charge=              0.0000 electrons
 Dipole moment (field-independent basis, Debye):
    X=              0.0000    Y=              0.0000    Z=              0.0000  Tot=              0.0000
 Quadrupole moment (field-independent basis, Debye-Ang):
   XX=            -10.1824   YY=            -10.1824   ZZ=            -11.6707
   XY=              0.0000   XZ=              0.0000   YZ=              0.0000
 Traceless Quadrupole moment (field-independent basis, Debye-Ang):
   XX=              0.4961   YY=              0.4961   ZZ=             -0.9922
   XY=              0.0000   XZ=              0.0000   YZ=              0.0000
 Octapole moment (field-independent basis, Debye-Ang**2):
  XXX=              0.0000  YYY=              0.0000  ZZZ=              0.0000  XYY=              0.0000
  XXY=              0.0000  XXZ=              0.0000  XZZ=              0.0000  YZZ=              0.0000
  YYZ=              0.0000  XYZ=              0.0000
 Hexadecapole moment (field-independent basis, Debye-Ang**3):
 XXXX=             -8.2504 YYYY=             -8.2504 ZZZZ=            -30.0118 XXXY=              0.0000
 XXXZ=              0.0000 YYYX=              0.0000 YYYZ=              0.0000 ZZZX=              0.0000
 ZZZY=              0.0000 XXYY=             -2.7501 XXZZ=             -5.9783 YYZZ=             -5.9783
 XXYZ=              0.0000 YYXZ=              0.0000 ZZXY=              0.0000
 N-N= 2.404516444874D+01 E-N=-3.035380900204D+02  KE= 1.085747212637D+02
 Symmetry AG   KE= 5.328364990544D+01
 Symmetry B1G  KE= 1.454232525035D-34
 Symmetry B2G  KE= 2.567144747796D-32
 Symmetry B3G  KE= 4.070375840817D-32
 Symmetry AU   KE= 5.573074870691D-34
 Symmetry B1U  KE= 4.877351528379D+01
 Symmetry B2U  KE= 3.258778037226D+00
 Symmetry B3U  KE= 3.258778037226D+00
 Orbital energies and kinetic energies (alpha):
                                 1                 2
   1 (SGG)--O                -15.690642         22.065433
   2 (SGU)--O                -15.686814         22.108513
   3 (SGG)--O                 -1.488191          2.566816
   4 (SGU)--O                 -0.769950          2.278245
   5 (SGG)--O                 -0.631590          2.009576
   6 (PIU)--O                 -0.620121          1.629389
   7 (PIU)--O                 -0.620121          1.629389
   8 (PIG)--V                  0.180761          1.742172
   9 (PIG)--V                  0.180761          1.742172
  10 (SGU)--V                  0.591348          1.377312
  11 (SGG)--V                  0.769105          1.442983
  12 (PIU)--V                  0.831036          2.353567
  13 (PIU)--V                  0.831036          2.353567
  14 (SGG)--V                  0.838584          2.030870
  15 (PIG)--V                  1.019391          3.002028
  16 (PIG)--V                  1.019391          3.002028
  17 (SGU)--V                  1.093721          3.113656
  18 (SGU)--V                  1.516696          3.290520
  19 (DLTG)--V                 1.711845          2.587892
  20 (DLTG)--V                 1.711845          2.587892
  21 (PIU)--V                  1.873598          3.074169
  22 (PIU)--V                  1.873598          3.074169
  23 (DLTU)--V                 2.272459          3.111570
  24 (DLTU)--V                 2.272459          3.111570
  25 (SGG)--V                  2.748198          4.183389
  26 (PIG)--V                  2.964907          4.008516
  27 (PIG)--V                  2.964907          4.008516
  28 (SGU)--V                  3.280202          6.342776
  29 (SGG)--V                  3.683552          8.356060
  30 (SGU)--V                  4.008789          9.759670
 Total kinetic energy from orbitals= 1.085747212637D+02
 No NMR shielding tensors so no spin-rotation constants.
 Leave Link  601 at Wed Mar 25 12:53:45 2026, MaxMem=    33554432 cpu:         0.0
 (Enter /opt/g09/g09/l9999.exe)

 Test job not archived.
 1\1\GINC-KADET27\FOpt\RHF\6-31G(d)\N2\MDOROHUN\25-Mar-2026\0\\#P HF/6-
 31G(d) Opt GFInput Pop=Full IOP(6/80=1)\\optymalizacja geometrii n2 me
 toda HF\\0,1\N,0.,0.,0.0098129365\N,0.,0.,1.0881870635\\Version=ES64L-
 G09RevD.01\State=1-SGG\HF=-108.9439495\RMSD=3.996e-09\RMSF=1.060e-06\D
 ipole=0.,0.,0.\Quadrupole=0.3688363,0.3688363,-0.7376725,0.,0.,0.\PG=D
 *H [C*(N1.N1)]\\@


 IF THERE IS ONE WAY BETTER THAN ANOTHER IT IS THE WAY OF NATURE.

                          -- ARISTOTLE
 Job cpu time:       0 days  0 hours  0 minutes  1.0 seconds.
 File lengths (MBytes):  RWF=      5 Int=      0 D2E=      0 Chk=      2 Scr=      1
 Normal termination of Gaussian 09 at Wed Mar 25 12:53:45 2026.
