 Entering Gaussian System, Link 0=/opt/g09/g09/g09
 Input=n2p_pi_hf.inp
 Output=n2p_pi_hf.log
 Initial command:
 /opt/g09/g09/l1.exe "/tmp/Gau-9821.inp" -scrdir="/tmp/"
 Entering Link 1 = /opt/g09/g09/l1.exe PID=      9823.
  
 Copyright (c) 1988,1990,1992,1993,1995,1998,2003,2009,2013,
            Gaussian, Inc.  All Rights Reserved.
  
 This is part of the Gaussian(R) 09 program.  It is based on
 the Gaussian(R) 03 system (copyright 2003, Gaussian, Inc.),
 the Gaussian(R) 98 system (copyright 1998, Gaussian, Inc.),
 the Gaussian(R) 94 system (copyright 1995, Gaussian, Inc.),
 the Gaussian 92(TM) system (copyright 1992, Gaussian, Inc.),
 the Gaussian 90(TM) system (copyright 1990, Gaussian, Inc.),
 the Gaussian 88(TM) system (copyright 1988, Gaussian, Inc.),
 the Gaussian 86(TM) system (copyright 1986, Carnegie Mellon
 University), and the Gaussian 82(TM) system (copyright 1983,
 Carnegie Mellon University). Gaussian is a federally registered
 trademark of Gaussian, Inc.
  
 This software contains proprietary and confidential information,
 including trade secrets, belonging to Gaussian, Inc.
  
 This software is provided under written license and may be
 used, copied, transmitted, or stored only in accord with that
 written license.
  
 The following legend is applicable only to US Government
 contracts under FAR:
  
                    RESTRICTED RIGHTS LEGEND
  
 Use, reproduction and disclosure by the US Government is
 subject to restrictions as set forth in subparagraphs (a)
 and (c) of the Commercial Computer Software - Restricted
 Rights clause in FAR 52.227-19.
  
 Gaussian, Inc.
 340 Quinnipiac St., Bldg. 40, Wallingford CT 06492
  
  
 ---------------------------------------------------------------
 Warning -- This program may not be used in any manner that
 competes with the business of Gaussian, Inc. or will provide
 assistance to any competitor of Gaussian, Inc.  The licensee
 of this program is prohibited from giving any competitor of
 Gaussian, Inc. access to this program.  By using this program,
 the user acknowledges that Gaussian, Inc. is engaged in the
 business of creating and licensing software in the field of
 computational chemistry and represents and warrants to the
 licensee that it is not a competitor of Gaussian, Inc. and that
 it will not use this program in any manner prohibited above.
 ---------------------------------------------------------------
  

 Cite this work as:
 Gaussian 09, Revision D.01,
 M. J. Frisch, G. W. Trucks, H. B. Schlegel, G. E. Scuseria, 
 M. A. Robb, J. R. Cheeseman, G. Scalmani, V. Barone, B. Mennucci, 
 G. A. Petersson, H. Nakatsuji, M. Caricato, X. Li, H. P. Hratchian, 
 A. F. Izmaylov, J. Bloino, G. Zheng, J. L. Sonnenberg, M. Hada, 
 M. Ehara, K. Toyota, R. Fukuda, J. Hasegawa, M. Ishida, T. Nakajima, 
 Y. Honda, O. Kitao, H. Nakai, T. Vreven, J. A. Montgomery, Jr., 
 J. E. Peralta, F. Ogliaro, M. Bearpark, J. J. Heyd, E. Brothers, 
 K. N. Kudin, V. N. Staroverov, T. Keith, R. Kobayashi, J. Normand, 
 K. Raghavachari, A. Rendell, J. C. Burant, S. S. Iyengar, J. Tomasi, 
 M. Cossi, N. Rega, J. M. Millam, M. Klene, J. E. Knox, J. B. Cross, 
 V. Bakken, C. Adamo, J. Jaramillo, R. Gomperts, R. E. Stratmann, 
 O. Yazyev, A. J. Austin, R. Cammi, C. Pomelli, J. W. Ochterski, 
 R. L. Martin, K. Morokuma, V. G. Zakrzewski, G. A. Voth, 
 P. Salvador, J. J. Dannenberg, S. Dapprich, A. D. Daniels, 
 O. Farkas, J. B. Foresman, J. V. Ortiz, J. Cioslowski, 
 and D. J. Fox, Gaussian, Inc., Wallingford CT, 2013.
 
 ******************************************
 Gaussian 09:  ES64L-G09RevD.01 24-Apr-2013
                25-Mar-2026 
 ******************************************
 %oldchk=n2_hf.chk
 %chk=n2p_pi_hf.chk
 Copying data from "n2_hf.chk" to current chk file "n2p_pi_hf.chk".
 ------------------------------------------------------
 #P HF/6-31G(d) guess=read GFInput Pop=Full IOP(6/80=1)
 ------------------------------------------------------
 1/38=1/1;
 2/12=2,17=6,18=5,40=1/2;
 3/5=1,6=6,7=1,11=9,16=1,24=10,25=1,30=1,116=-2/1,2,3;
 4/5=1/1;
 5/5=2,38=6/2;
 6/7=3,28=1,80=1/1;
 99/5=1,9=1/99;
 Leave Link    1 at Wed Mar 25 12:53:57 2026, MaxMem=    33554432 cpu:         0.0
 (Enter /opt/g09/g09/l101.exe)
 ---------------------------
 n2 energia jonu w stanie Pi
 ---------------------------
 Symbolic Z-matrix:
 Charge =  1 Multiplicity = 2
 N
 N                    1     1.0784 
 
 NAtoms=      2 NQM=        2 NQMF=       0 NMMI=      0 NMMIF=      0
                NMic=       0 NMicF=      0.
                    Isotopes and Nuclear Properties:
 (Nuclear quadrupole moments (NQMom) in fm**2, nuclear magnetic moments (NMagM)
  in nuclear magnetons)

  Atom         1           2
 IAtWgt=          14          14
 AtmWgt=  14.0030740  14.0030740
 NucSpn=           2           2
 AtZEff=   0.0000000   0.0000000
 NQMom=    2.0440000   2.0440000
 NMagM=    0.4037610   0.4037610
 AtZNuc=   7.0000000   7.0000000
 Leave Link  101 at Wed Mar 25 12:53:57 2026, MaxMem=    33554432 cpu:         0.0
 (Enter /opt/g09/g09/l202.exe)
                          Input orientation:                          
 ---------------------------------------------------------------------
 Center     Atomic      Atomic             Coordinates (Angstroms)
 Number     Number       Type             X           Y           Z
 ---------------------------------------------------------------------
      1          7           0        0.000000    0.000000    0.000000
      2          7           0        0.000000    0.000000    1.078400
 ---------------------------------------------------------------------
 Stoichiometry    N2(1+,2)
 Framework group  D*H[C*(N.N)]
 Deg. of freedom     1
 Full point group                 D*H     NOp   8
 Largest Abelian subgroup         D2H     NOp   8
 Largest concise Abelian subgroup C2      NOp   2
                         Standard orientation:                         
 ---------------------------------------------------------------------
 Center     Atomic      Atomic             Coordinates (Angstroms)
 Number     Number       Type             X           Y           Z
 ---------------------------------------------------------------------
      1          7           0        0.000000    0.000000    0.539200
      2          7           0        0.000000    0.000000   -0.539200
 ---------------------------------------------------------------------
 Rotational constants (GHZ):      0.0000000     62.0674709     62.0674709
 Leave Link  202 at Wed Mar 25 12:53:57 2026, MaxMem=    33554432 cpu:         0.0
 (Enter /opt/g09/g09/l301.exe)
 Standard basis: 6-31G(d) (6D, 7F)
 Ernie: Thresh=  0.10000D-02 Tol=  0.10000D-05 Strict=F.
 AO basis set in the form of general basis input (Overlap normalization):
      1 0
 S   6 1.00       0.000000000000
      0.4173511460D+04  0.1834772160D-02
      0.6274579110D+03  0.1399462700D-01
      0.1429020930D+03  0.6858655181D-01
      0.4023432930D+02  0.2322408730D+00
      0.1282021290D+02  0.4690699481D+00
      0.4390437010D+01  0.3604551991D+00
 SP   3 1.00       0.000000000000
      0.1162636186D+02 -0.1149611817D+00  0.6757974388D-01
      0.2716279807D+01 -0.1691174786D+00  0.3239072959D+00
      0.7722183966D+00  0.1145851947D+01  0.7408951398D+00
 SP   1 1.00       0.000000000000
      0.2120314975D+00  0.1000000000D+01  0.1000000000D+01
 D   1 1.00       0.000000000000
      0.8000000000D+00  0.1000000000D+01
 ****
      2 0
 S   6 1.00       0.000000000000
      0.4173511460D+04  0.1834772160D-02
      0.6274579110D+03  0.1399462700D-01
      0.1429020930D+03  0.6858655181D-01
      0.4023432930D+02  0.2322408730D+00
      0.1282021290D+02  0.4690699481D+00
      0.4390437010D+01  0.3604551991D+00
 SP   3 1.00       0.000000000000
      0.1162636186D+02 -0.1149611817D+00  0.6757974388D-01
      0.2716279807D+01 -0.1691174786D+00  0.3239072959D+00
      0.7722183966D+00  0.1145851947D+01  0.7408951398D+00
 SP   1 1.00       0.000000000000
      0.2120314975D+00  0.1000000000D+01  0.1000000000D+01
 D   1 1.00       0.000000000000
      0.8000000000D+00  0.1000000000D+01
 ****

 There are     8 symmetry adapted cartesian basis functions of AG  symmetry.
 There are     1 symmetry adapted cartesian basis functions of B1G symmetry.
 There are     3 symmetry adapted cartesian basis functions of B2G symmetry.
 There are     3 symmetry adapted cartesian basis functions of B3G symmetry.
 There are     1 symmetry adapted cartesian basis functions of AU  symmetry.
 There are     8 symmetry adapted cartesian basis functions of B1U symmetry.
 There are     3 symmetry adapted cartesian basis functions of B2U symmetry.
 There are     3 symmetry adapted cartesian basis functions of B3U symmetry.
 There are     8 symmetry adapted basis functions of AG  symmetry.
 There are     1 symmetry adapted basis functions of B1G symmetry.
 There are     3 symmetry adapted basis functions of B2G symmetry.
 There are     3 symmetry adapted basis functions of B3G symmetry.
 There are     1 symmetry adapted basis functions of AU  symmetry.
 There are     8 symmetry adapted basis functions of B1U symmetry.
 There are     3 symmetry adapted basis functions of B2U symmetry.
 There are     3 symmetry adapted basis functions of B3U symmetry.
    30 basis functions,    56 primitive gaussians,    30 cartesian basis functions
     7 alpha electrons        6 beta electrons
       nuclear repulsion energy        24.0445875565 Hartrees.
 IExCor=    0 DFT=F Ex=HF Corr=None ExCW=0 ScaHFX=  1.000000
 ScaDFX=  1.000000  1.000000  1.000000  1.000000 ScalE2=  1.000000  1.000000
 IRadAn=      0 IRanWt=     -1 IRanGd=            0 ICorTp=0 IEmpDi=  4
 NAtoms=    2 NActive=    2 NUniq=    1 SFac= 4.00D+00 NAtFMM=   60 NAOKFM=F Big=F
 Integral buffers will be    131072 words long.
 Raffenetti 2 integral format.
 Two-electron integral symmetry is turned on.
 Leave Link  301 at Wed Mar 25 12:53:57 2026, MaxMem=    33554432 cpu:         0.0
 (Enter /opt/g09/g09/l302.exe)
 NPDir=0 NMtPBC=     1 NCelOv=     1 NCel=       1 NClECP=     1 NCelD=      1
         NCelK=      1 NCelE2=     1 NClLst=     1 CellRange=     0.0.
 One-electron integrals computed using PRISM.
 One-electron integral symmetry used in STVInt
 NBasis=    30 RedAO= T EigKep=  5.64D-03  NBF=     8     1     3     3     1     8     3     3
 NBsUse=    30 1.00D-06 EigRej= -1.00D+00 NBFU=     8     1     3     3     1     8     3     3
 Leave Link  302 at Wed Mar 25 12:53:57 2026, MaxMem=    33554432 cpu:         0.0
 (Enter /opt/g09/g09/l303.exe)
 DipDrv:  MaxL=1.
 Leave Link  303 at Wed Mar 25 12:53:57 2026, MaxMem=    33554432 cpu:         0.0
 (Enter /opt/g09/g09/l401.exe)
 Initial guess from the checkpoint file:  "n2p_pi_hf.chk"
 B after Tr=     0.000000    0.000000    0.000000
         Rot=    1.000000    0.000000    0.000000    0.000000 Ang=   0.00 deg.
 Guess basis will be translated and rotated to current coordinates.
 JPrj=2 DoOrth=T DoCkMO=T.
 Initial guess orbital symmetries:
 Alpha Orbitals:
       Occupied  (SGG) (SGU) (SGG) (SGU) (SGG) (PIU) (PIU)
       Virtual   (PIG) (PIG) (SGU) (SGG) (PIU) (PIU) (SGG) (PIG)
                 (PIG) (SGU) (SGU) (DLTG) (DLTG) (PIU) (PIU) (DLTU)
                 (DLTU) (SGG) (PIG) (PIG) (SGU) (SGG) (SGU)
 Beta  Orbitals:
       Occupied  (SGG) (SGU) (SGG) (SGU) (SGG) (PIU)
       Virtual   (PIU) (PIG) (PIG) (SGU) (SGG) (PIU) (PIU) (SGG)
                 (PIG) (PIG) (SGU) (SGU) (DLTG) (DLTG) (PIU) (PIU)
                 (DLTU) (DLTU) (SGG) (PIG) (PIG) (SGU) (SGG) (SGU)
 Initial guess <Sx>= 0.0000 <Sy>= 0.0000 <Sz>= 0.5000 <S**2>= 0.7500 S= 0.5000
 Leave Link  401 at Wed Mar 25 12:53:57 2026, MaxMem=    33554432 cpu:         0.0
 (Enter /opt/g09/g09/l502.exe)
 UHF open shell SCF:
 Using DIIS extrapolation, IDIIS=  1040.
 Integral symmetry usage will be decided dynamically.
 Keep R1 and R2 ints in memory in symmetry-blocked form, NReq=959811.
 IVT=       21766 IEndB=       21766 NGot=    33554432 MDV=    33499153
 LenX=    33499153 LenY=    33497812
 Requested convergence on RMS density matrix=1.00D-08 within 128 cycles.
 Requested convergence on MAX density matrix=1.00D-06.
 Requested convergence on             energy=1.00D-06.
 No special actions if energy rises.
 FoFCou: FMM=F IPFlag=           0 FMFlag=           0 FMFlg1=           0
         NFxFlg=           0 DoJE=F BraDBF=F KetDBF=F FulRan=T
         wScrn=  0.000000 ICntrl=     600 IOpCl=  0 I1Cent=           0 NGrid=           0
         NMat0=    1 NMatS0=    465 NMatT0=    0 NMatD0=    1 NMtDS0=    0 NMtDT0=    0
 Petite list used in FoFCou.

 Cycle   1  Pass 1  IDiag  1:
 E= -108.323844639536    
 DIIS: error= 4.34D-02 at cycle   1 NSaved=   1.
 NSaved= 1 IEnMin= 1 EnMin= -108.323844639536     IErMin= 1 ErrMin= 4.34D-02
 ErrMax= 4.34D-02  0.00D+00 EMaxC= 1.00D-01 BMatC= 1.90D-01 BMatP= 1.90D-01
 IDIUse=3 WtCom= 5.66D-01 WtEn= 4.34D-01
 Coeff-Com:  0.100D+01
 Coeff-En:   0.100D+01
 Coeff:      0.100D+01
 Gap=     0.812 Goal=   None    Shift=    0.000
 Gap=     0.493 Goal=   None    Shift=    0.000
 GapD=    0.493 DampG=2.000 DampE=0.500 DampFc=1.0000 IDamp=-1.
 RMSDP=8.37D-03 MaxDP=7.00D-02              OVMax= 7.34D-02

 Cycle   2  Pass 1  IDiag  1:
 E= -108.371462326545     Delta-E=       -0.047617687009 Rises=F Damp=F
 DIIS: error= 6.90D-03 at cycle   2 NSaved=   2.
 NSaved= 2 IEnMin= 2 EnMin= -108.371462326545     IErMin= 2 ErrMin= 6.90D-03
 ErrMax= 6.90D-03  0.00D+00 EMaxC= 1.00D-01 BMatC= 5.22D-03 BMatP= 1.90D-01
 IDIUse=3 WtCom= 9.31D-01 WtEn= 6.90D-02
 Coeff-Com:  0.103D+00 0.897D+00
 Coeff-En:   0.000D+00 0.100D+01
 Coeff:      0.959D-01 0.904D+00
 Gap=     0.796 Goal=   None    Shift=    0.000
 Gap=     0.519 Goal=   None    Shift=    0.000
 RMSDP=1.52D-03 MaxDP=2.03D-02 DE=-4.76D-02 OVMax= 8.54D-03

 Cycle   3  Pass 1  IDiag  1:
 E= -108.372350632961     Delta-E=       -0.000888306416 Rises=F Damp=F
 DIIS: error= 1.36D-03 at cycle   3 NSaved=   3.
 NSaved= 3 IEnMin= 3 EnMin= -108.372350632961     IErMin= 3 ErrMin= 1.36D-03
 ErrMax= 1.36D-03  0.00D+00 EMaxC= 1.00D-01 BMatC= 1.18D-04 BMatP= 5.22D-03
 IDIUse=3 WtCom= 9.86D-01 WtEn= 1.36D-02
 Coeff-Com: -0.237D-01-0.172D+00 0.120D+01
 Coeff-En:   0.000D+00 0.000D+00 0.100D+01
 Coeff:     -0.233D-01-0.169D+00 0.119D+01
 Gap=     0.792 Goal=   None    Shift=    0.000
 Gap=     0.518 Goal=   None    Shift=    0.000
 RMSDP=5.41D-04 MaxDP=8.87D-03 DE=-8.88D-04 OVMax= 2.76D-03

 Cycle   4  Pass 1  IDiag  1:
 E= -108.372387133819     Delta-E=       -0.000036500858 Rises=F Damp=F
 DIIS: error= 2.96D-04 at cycle   4 NSaved=   4.
 NSaved= 4 IEnMin= 4 EnMin= -108.372387133819     IErMin= 4 ErrMin= 2.96D-04
 ErrMax= 2.96D-04  0.00D+00 EMaxC= 1.00D-01 BMatC= 4.20D-06 BMatP= 1.18D-04
 IDIUse=3 WtCom= 9.97D-01 WtEn= 2.96D-03
 Coeff-Com:  0.476D-02 0.409D-01-0.363D+00 0.132D+01
 Coeff-En:   0.000D+00 0.000D+00 0.000D+00 0.100D+01
 Coeff:      0.475D-02 0.407D-01-0.362D+00 0.132D+01
 Gap=     0.792 Goal=   None    Shift=    0.000
 Gap=     0.519 Goal=   None    Shift=    0.000
 RMSDP=1.20D-04 MaxDP=1.46D-03 DE=-3.65D-05 OVMax= 6.30D-04

 Cycle   5  Pass 1  IDiag  1:
 E= -108.372388849676     Delta-E=       -0.000001715857 Rises=F Damp=F
 DIIS: error= 4.87D-05 at cycle   5 NSaved=   5.
 NSaved= 5 IEnMin= 5 EnMin= -108.372388849676     IErMin= 5 ErrMin= 4.87D-05
 ErrMax= 4.87D-05  0.00D+00 EMaxC= 1.00D-01 BMatC= 1.27D-07 BMatP= 4.20D-06
 IDIUse=1 WtCom= 1.00D+00 WtEn= 0.00D+00
 Coeff-Com: -0.813D-03-0.867D-02 0.834D-01-0.429D+00 0.136D+01
 Coeff:     -0.813D-03-0.867D-02 0.834D-01-0.429D+00 0.136D+01
 Gap=     0.792 Goal=   None    Shift=    0.000
 Gap=     0.519 Goal=   None    Shift=    0.000
 RMSDP=2.50D-05 MaxDP=3.65D-04 DE=-1.72D-06 OVMax= 1.27D-04

 Cycle   6  Pass 1  IDiag  1:
 E= -108.372388903350     Delta-E=       -0.000000053674 Rises=F Damp=F
 DIIS: error= 5.71D-06 at cycle   6 NSaved=   6.
 NSaved= 6 IEnMin= 6 EnMin= -108.372388903350     IErMin= 6 ErrMin= 5.71D-06
 ErrMax= 5.71D-06  0.00D+00 EMaxC= 1.00D-01 BMatC= 1.09D-09 BMatP= 1.27D-07
 IDIUse=1 WtCom= 1.00D+00 WtEn= 0.00D+00
 Coeff-Com:  0.845D-04 0.108D-02-0.111D-01 0.679D-01-0.282D+00 0.122D+01
 Coeff:      0.845D-04 0.108D-02-0.111D-01 0.679D-01-0.282D+00 0.122D+01
 Gap=     0.792 Goal=   None    Shift=    0.000
 Gap=     0.519 Goal=   None    Shift=    0.000
 RMSDP=1.12D-06 MaxDP=1.29D-05 DE=-5.37D-08 OVMax= 9.50D-06

 Cycle   7  Pass 1  IDiag  1:
 E= -108.372388903753     Delta-E=       -0.000000000403 Rises=F Damp=F
 DIIS: error= 8.04D-07 at cycle   7 NSaved=   7.
 NSaved= 7 IEnMin= 7 EnMin= -108.372388903753     IErMin= 7 ErrMin= 8.04D-07
 ErrMax= 8.04D-07  0.00D+00 EMaxC= 1.00D-01 BMatC= 1.73D-11 BMatP= 1.09D-09
 IDIUse=1 WtCom= 1.00D+00 WtEn= 0.00D+00
 Coeff-Com: -0.740D-05-0.131D-03 0.133D-02-0.902D-02 0.425D-01-0.258D+00
 Coeff-Com:  0.122D+01
 Coeff:     -0.740D-05-0.131D-03 0.133D-02-0.902D-02 0.425D-01-0.258D+00
 Coeff:      0.122D+01
 Gap=     0.792 Goal=   None    Shift=    0.000
 Gap=     0.519 Goal=   None    Shift=    0.000
 RMSDP=1.79D-07 MaxDP=2.58D-06 DE=-4.03D-10 OVMax= 1.37D-06

 Cycle   8  Pass 1  IDiag  1:
 E= -108.372388903760     Delta-E=       -0.000000000007 Rises=F Damp=F
 DIIS: error= 1.17D-07 at cycle   8 NSaved=   8.
 NSaved= 8 IEnMin= 8 EnMin= -108.372388903760     IErMin= 8 ErrMin= 1.17D-07
 ErrMax= 1.17D-07  0.00D+00 EMaxC= 1.00D-01 BMatC= 7.86D-13 BMatP= 1.73D-11
 IDIUse=1 WtCom= 1.00D+00 WtEn= 0.00D+00
 Coeff-Com: -0.993D-07 0.111D-04-0.106D-03 0.921D-03-0.538D-02 0.448D-01
 Coeff-Com: -0.369D+00 0.133D+01
 Coeff:     -0.993D-07 0.111D-04-0.106D-03 0.921D-03-0.538D-02 0.448D-01
 Coeff:     -0.369D+00 0.133D+01
 Gap=     0.792 Goal=   None    Shift=    0.000
 Gap=     0.519 Goal=   None    Shift=    0.000
 RMSDP=2.52D-08 MaxDP=3.06D-07 DE=-7.30D-12 OVMax= 2.28D-07

 Cycle   9  Pass 1  IDiag  1:
 E= -108.372388903761     Delta-E=        0.000000000000 Rises=F Damp=F
 DIIS: error= 2.68D-08 at cycle   9 NSaved=   9.
 NSaved= 9 IEnMin= 9 EnMin= -108.372388903761     IErMin= 9 ErrMin= 2.68D-08
 ErrMax= 2.68D-08  0.00D+00 EMaxC= 1.00D-01 BMatC= 3.78D-14 BMatP= 7.86D-13
 IDIUse=1 WtCom= 1.00D+00 WtEn= 0.00D+00
 Coeff-Com:  0.448D-06 0.228D-05-0.250D-04 0.677D-04 0.155D-03-0.613D-02
 Coeff-Com:  0.954D-01-0.543D+00 0.145D+01
 Coeff:      0.448D-06 0.228D-05-0.250D-04 0.677D-04 0.155D-03-0.613D-02
 Coeff:      0.954D-01-0.543D+00 0.145D+01
 Gap=     0.792 Goal=   None    Shift=    0.000
 Gap=     0.519 Goal=   None    Shift=    0.000
 RMSDP=8.25D-09 MaxDP=1.48D-07 DE=-1.71D-13 OVMax= 7.17D-08

 SCF Done:  E(UHF) =  -108.372388904     A.U. after    9 cycles
            NFock=  9  Conv=0.82D-08     -V/T= 2.0002
 <Sx>= 0.0000 <Sy>= 0.0000 <Sz>= 0.5000 <S**2>= 0.7524 S= 0.5012
 <L.S>= 0.000000000000E+00
 KE= 1.083458602497D+02 PE=-2.967394853979D+02 EE= 5.597664868801D+01
 Annihilation of the first spin contaminant:
 S**2 before annihilation     0.7524,   after     0.7500
 Leave Link  502 at Wed Mar 25 12:53:57 2026, MaxMem=    33554432 cpu:         0.0
 (Enter /opt/g09/g09/l601.exe)
 Copying SCF densities to generalized density rwf, IOpCl= 1 IROHF=0.

 **********************************************************************

            Population analysis using the SCF density.

 **********************************************************************

 Orbital symmetries:
 Alpha Orbitals:
       Occupied  (SGG) (SGU) (SGG) (SGU) (PIU) (PIU) (SGG)
       Virtual   (PIG) (PIG) (SGU) (SGG) (PIU) (PIU) (SGG) (PIG)
                 (PIG) (SGU) (SGU) (DLTG) (DLTG) (PIU) (PIU) (DLTU)
                 (DLTU) (SGG) (PIG) (PIG) (SGU) (SGG) (SGU)
 Beta  Orbitals:
       Occupied  (SGG) (SGU) (SGG) (SGU) (?A) (SGG)
       Virtual   (?A) (?B) (?B) (SGU) (SGG) (?A) (SGG) (?A) (?B)
                 (?B) (SGU) (SGU) (DLTG) (DLTG) (PIU) (PIU) (DLTU)
                 (DLTU) (SGG) (PIG) (PIG) (SGU) (SGG) (SGU)
 Unable to determine electronic state:  an orbital has unidentified symmetry.
 Alpha  occ. eigenvalues --  -16.19512 -16.19103  -2.02055  -1.20987  -1.13791
 Alpha  occ. eigenvalues --   -1.08083  -1.06644
 Alpha virt. eigenvalues --   -0.27457  -0.23183   0.26651   0.38625   0.41801
 Alpha virt. eigenvalues --    0.44938   0.48774   0.61591   0.64296   0.67593
 Alpha virt. eigenvalues --    1.11175   1.24457   1.24488   1.39307   1.43614
 Alpha virt. eigenvalues --    1.81839   1.81887   2.31663   2.51463   2.54961
 Alpha virt. eigenvalues --    2.83957   3.23084   3.57879
  Beta  occ. eigenvalues --  -16.18051 -16.17716  -1.91192  -1.16592  -1.05708
  Beta  occ. eigenvalues --   -1.04599
  Beta virt. eigenvalues --   -0.52717  -0.21840  -0.12161   0.28262   0.40857
  Beta virt. eigenvalues --    0.45684   0.49654   0.50051   0.64990   0.68300
  Beta virt. eigenvalues --    0.69051   1.13542   1.31525   1.31613   1.44468
  Beta virt. eigenvalues --    1.46350   1.85978   1.85989   2.33458   2.55057
  Beta virt. eigenvalues --    2.55405   2.84863   3.25494   3.59325
     Alpha Molecular Orbital Coefficients:
                           1         2         3         4         5
                       (SGG)--O  (SGU)--O  (SGG)--O  (SGU)--O  (PIU)--O
     Eigenvalues --   -16.19512 -16.19103  -2.02055  -1.20987  -1.13791
   1 1   N  1S          0.70325   0.70396  -0.15941  -0.15136   0.00000
   2        2S          0.01735   0.01791   0.35094   0.37246   0.00000
   3        2PX         0.00000   0.00000   0.00000   0.00000   0.47392
   4        2PY         0.00000   0.00000   0.00000   0.00000   0.00000
   5        2PZ        -0.00200  -0.00338  -0.24076   0.22912   0.00000
   6        3S          0.00038  -0.00046   0.14995   0.55544   0.00000
   7        3PX         0.00000   0.00000   0.00000   0.00000   0.20111
   8        3PY         0.00000   0.00000   0.00000   0.00000   0.00000
   9        3PZ         0.00067   0.00012  -0.03535   0.00006   0.00000
  10        4XX        -0.00270  -0.00265  -0.00439   0.01335   0.00000
  11        4YY        -0.00286  -0.00283  -0.01749  -0.00058   0.00000
  12        4ZZ        -0.00224  -0.00029   0.03492  -0.02462   0.00000
  13        4XY         0.00000   0.00000   0.00000   0.00000   0.00000
  14        4XZ         0.00000   0.00000   0.00000   0.00000  -0.06416
  15        4YZ         0.00000   0.00000   0.00000   0.00000   0.00000
  16 2   N  1S          0.70325  -0.70396  -0.15941   0.15136   0.00000
  17        2S          0.01735  -0.01791   0.35094  -0.37246   0.00000
  18        2PX         0.00000   0.00000   0.00000   0.00000   0.47392
  19        2PY         0.00000   0.00000   0.00000   0.00000   0.00000
  20        2PZ         0.00200  -0.00338   0.24076   0.22912   0.00000
  21        3S          0.00038   0.00046   0.14995  -0.55544   0.00000
  22        3PX         0.00000   0.00000   0.00000   0.00000   0.20111
  23        3PY         0.00000   0.00000   0.00000   0.00000   0.00000
  24        3PZ        -0.00067   0.00012   0.03535   0.00006   0.00000
  25        4XX        -0.00270   0.00265  -0.00439  -0.01335   0.00000
  26        4YY        -0.00286   0.00283  -0.01749   0.00058   0.00000
  27        4ZZ        -0.00224   0.00029   0.03492   0.02462   0.00000
  28        4XY         0.00000   0.00000   0.00000   0.00000   0.00000
  29        4XZ         0.00000   0.00000   0.00000   0.00000   0.06416
  30        4YZ         0.00000   0.00000   0.00000   0.00000   0.00000
                           6         7         8         9        10
                       (PIU)--O  (SGG)--O  (PIG)--V  (PIG)--V  (SGU)--V
     Eigenvalues --    -1.08083  -1.06644  -0.27457  -0.23183   0.26651
   1 1   N  1S          0.00000  -0.06163   0.00000   0.00000  -0.08939
   2        2S          0.00000   0.14792   0.00000   0.00000   0.24275
   3        2PX         0.00000   0.00000   0.51408   0.00000   0.00000
   4        2PY         0.47012   0.00000   0.00000   0.50168   0.00000
   5        2PZ         0.00000   0.47704   0.00000   0.00000  -0.13514
   6        3S          0.00000   0.30007   0.00000   0.00000   4.05500
   7        3PX         0.00000   0.00000   0.56546   0.00000   0.00000
   8        3PY         0.20642   0.00000   0.00000   0.58432   0.00000
   9        3PZ         0.00000   0.15042   0.00000   0.00000  -2.64690
  10        4XX         0.00000   0.01795   0.00000   0.00000   0.01702
  11        4YY         0.00000   0.01160   0.00000   0.00000   0.00294
  12        4ZZ         0.00000  -0.03655   0.00000   0.00000   0.03817
  13        4XY         0.00000   0.00000   0.00000   0.00000   0.00000
  14        4XZ         0.00000   0.00000   0.00871   0.00000   0.00000
  15        4YZ        -0.06027   0.00000   0.00000   0.01187   0.00000
  16 2   N  1S          0.00000  -0.06163   0.00000   0.00000   0.08939
  17        2S          0.00000   0.14792   0.00000   0.00000  -0.24275
  18        2PX         0.00000   0.00000  -0.51408   0.00000   0.00000
  19        2PY         0.47012   0.00000   0.00000  -0.50168   0.00000
  20        2PZ         0.00000  -0.47704   0.00000   0.00000  -0.13514
  21        3S          0.00000   0.30007   0.00000   0.00000  -4.05500
  22        3PX         0.00000   0.00000  -0.56546   0.00000   0.00000
  23        3PY         0.20642   0.00000   0.00000  -0.58432   0.00000
  24        3PZ         0.00000  -0.15042   0.00000   0.00000  -2.64690
  25        4XX         0.00000   0.01795   0.00000   0.00000  -0.01702
  26        4YY         0.00000   0.01160   0.00000   0.00000  -0.00294
  27        4ZZ         0.00000  -0.03655   0.00000   0.00000  -0.03817
  28        4XY         0.00000   0.00000   0.00000   0.00000   0.00000
  29        4XZ         0.00000   0.00000   0.00871   0.00000   0.00000
  30        4YZ         0.06027   0.00000   0.00000   0.01187   0.00000
                          11        12        13        14        15
                       (SGG)--V  (PIU)--V  (PIU)--V  (SGG)--V  (PIG)--V
     Eigenvalues --     0.38625   0.41801   0.44938   0.48774   0.61591
   1 1   N  1S          0.02383   0.00000   0.00000   0.00926   0.00000
   2        2S          0.64944   0.00000   0.00000  -0.55348   0.00000
   3        2PX         0.00000  -0.59337   0.00000   0.00000  -0.68111
   4        2PY         0.00000   0.00000  -0.59790   0.00000   0.00000
   5        2PZ        -0.21264   0.00000   0.00000  -0.43804   0.00000
   6        3S         -0.58225   0.00000   0.00000   0.93299   0.00000
   7        3PX         0.00000   0.63453   0.00000   0.00000   1.24471
   8        3PY         0.00000   0.00000   0.63277   0.00000   0.00000
   9        3PZ         0.76100   0.00000   0.00000   0.63263   0.00000
  10        4XX         0.07637   0.00000   0.00000  -0.14188   0.00000
  11        4YY         0.09024   0.00000   0.00000  -0.13338   0.00000
  12        4ZZ         0.19170   0.00000   0.00000  -0.12312   0.00000
  13        4XY         0.00000   0.00000   0.00000   0.00000   0.00000
  14        4XZ         0.00000   0.10055   0.00000   0.00000  -0.05477
  15        4YZ         0.00000   0.00000   0.10057   0.00000   0.00000
  16 2   N  1S          0.02383   0.00000   0.00000   0.00926   0.00000
  17        2S          0.64944   0.00000   0.00000  -0.55348   0.00000
  18        2PX         0.00000  -0.59337   0.00000   0.00000   0.68111
  19        2PY         0.00000   0.00000  -0.59790   0.00000   0.00000
  20        2PZ         0.21264   0.00000   0.00000   0.43804   0.00000
  21        3S         -0.58225   0.00000   0.00000   0.93299   0.00000
  22        3PX         0.00000   0.63453   0.00000   0.00000  -1.24471
  23        3PY         0.00000   0.00000   0.63277   0.00000   0.00000
  24        3PZ        -0.76100   0.00000   0.00000  -0.63263   0.00000
  25        4XX         0.07637   0.00000   0.00000  -0.14188   0.00000
  26        4YY         0.09024   0.00000   0.00000  -0.13338   0.00000
  27        4ZZ         0.19170   0.00000   0.00000  -0.12312   0.00000
  28        4XY         0.00000   0.00000   0.00000   0.00000   0.00000
  29        4XZ         0.00000  -0.10055   0.00000   0.00000  -0.05477
  30        4YZ         0.00000   0.00000  -0.10057   0.00000   0.00000
                          16        17        18        19        20
                       (PIG)--V  (SGU)--V  (SGU)--V  (DLTG)--  (DLTG)--
     Eigenvalues --     0.64296   0.67593   1.11175   1.24457   1.24488
   1 1   N  1S          0.00000  -0.07350  -0.02309   0.00000   0.00554
   2        2S          0.00000  -0.32039  -1.24614   0.00000  -0.00094
   3        2PX         0.00000   0.00000   0.00000   0.00000   0.00000
   4        2PY        -0.68858   0.00000   0.00000   0.00000   0.00000
   5        2PZ         0.00000  -0.68559   0.30585   0.00000  -0.01050
   6        3S          0.00000   1.76036   7.37611   0.00000  -0.01515
   7        3PX         0.00000   0.00000   0.00000   0.00000   0.00000
   8        3PY         1.23692   0.00000   0.00000   0.00000   0.00000
   9        3PZ         0.00000  -0.19976  -3.32470   0.00000   0.02273
  10        4XX         0.00000  -0.01095  -0.25265   0.00000   0.57490
  11        4YY         0.00000  -0.02621  -0.23633   0.00000  -0.54751
  12        4ZZ         0.00000  -0.34174   0.06602   0.00000  -0.00295
  13        4XY         0.00000   0.00000   0.00000   0.64823   0.00000
  14        4XZ         0.00000   0.00000   0.00000   0.00000   0.00000
  15        4YZ        -0.05901   0.00000   0.00000   0.00000   0.00000
  16 2   N  1S          0.00000   0.07350   0.02309   0.00000   0.00554
  17        2S          0.00000   0.32039   1.24614   0.00000  -0.00094
  18        2PX         0.00000   0.00000   0.00000   0.00000   0.00000
  19        2PY         0.68858   0.00000   0.00000   0.00000   0.00000
  20        2PZ         0.00000  -0.68559   0.30585   0.00000   0.01050
  21        3S          0.00000  -1.76036  -7.37611   0.00000  -0.01515
  22        3PX         0.00000   0.00000   0.00000   0.00000   0.00000
  23        3PY        -1.23692   0.00000   0.00000   0.00000   0.00000
  24        3PZ         0.00000  -0.19976  -3.32470   0.00000  -0.02273
  25        4XX         0.00000   0.01095   0.25265   0.00000   0.57490
  26        4YY         0.00000   0.02621   0.23633   0.00000  -0.54751
  27        4ZZ         0.00000   0.34174  -0.06602   0.00000  -0.00295
  28        4XY         0.00000   0.00000   0.00000   0.64823   0.00000
  29        4XZ         0.00000   0.00000   0.00000   0.00000   0.00000
  30        4YZ        -0.05901   0.00000   0.00000   0.00000   0.00000
                          21        22        23        24        25
                       (PIU)--V  (PIU)--V  (DLTU)--  (DLTU)--  (SGG)--V
     Eigenvalues --     1.39307   1.43614   1.81839   1.81887   2.31663
   1 1   N  1S          0.00000   0.00000   0.00000   0.00523   0.14000
   2        2S          0.00000   0.00000   0.00000  -0.02690   0.33539
   3        2PX         0.31107   0.00000   0.00000   0.00000   0.00000
   4        2PY         0.00000   0.30816   0.00000   0.00000   0.00000
   5        2PZ         0.00000   0.00000   0.00000   0.01925  -0.33755
   6        3S          0.00000   0.00000   0.00000  -0.03989  -0.54874
   7        3PX        -0.07523   0.00000   0.00000   0.00000   0.00000
   8        3PY         0.00000  -0.07568   0.00000   0.00000   0.00000
   9        3PZ         0.00000   0.00000   0.00000   0.01573   0.59712
  10        4XX         0.00000   0.00000   0.00000   0.68963   0.68167
  11        4YY         0.00000   0.00000   0.00000  -0.67070   0.69906
  12        4ZZ         0.00000   0.00000   0.00000  -0.00087  -0.55303
  13        4XY         0.00000   0.00000   0.78563   0.00000   0.00000
  14        4XZ         0.59489   0.00000   0.00000   0.00000   0.00000
  15        4YZ         0.00000   0.59529   0.00000   0.00000   0.00000
  16 2   N  1S          0.00000   0.00000   0.00000  -0.00523   0.14000
  17        2S          0.00000   0.00000   0.00000   0.02690   0.33539
  18        2PX         0.31107   0.00000   0.00000   0.00000   0.00000
  19        2PY         0.00000   0.30816   0.00000   0.00000   0.00000
  20        2PZ         0.00000   0.00000   0.00000   0.01925   0.33755
  21        3S          0.00000   0.00000   0.00000   0.03989  -0.54874
  22        3PX        -0.07523   0.00000   0.00000   0.00000   0.00000
  23        3PY         0.00000  -0.07568   0.00000   0.00000   0.00000
  24        3PZ         0.00000   0.00000   0.00000   0.01573  -0.59712
  25        4XX         0.00000   0.00000   0.00000  -0.68963   0.68167
  26        4YY         0.00000   0.00000   0.00000   0.67070   0.69906
  27        4ZZ         0.00000   0.00000   0.00000   0.00087  -0.55303
  28        4XY         0.00000   0.00000  -0.78563   0.00000   0.00000
  29        4XZ        -0.59489   0.00000   0.00000   0.00000   0.00000
  30        4YZ         0.00000  -0.59529   0.00000   0.00000   0.00000
                          26        27        28        29        30
                       (PIG)--V  (PIG)--V  (SGU)--V  (SGG)--V  (SGU)--V
     Eigenvalues --     2.51463   2.54961   2.83957   3.23084   3.57879
   1 1   N  1S          0.00000   0.00000  -0.00465  -0.23314  -0.35728
   2        2S          0.00000   0.00000   0.59933   1.31072   0.48144
   3        2PX        -0.27217   0.00000   0.00000   0.00000   0.00000
   4        2PY         0.00000  -0.27645   0.00000   0.00000   0.00000
   5        2PZ         0.00000   0.00000  -1.15647  -0.14642   0.49016
   6        3S          0.00000   0.00000   3.43584   0.79773   4.05186
   7        3PX        -0.49961   0.00000   0.00000   0.00000   0.00000
   8        3PY         0.00000  -0.49724   0.00000   0.00000   0.00000
   9        3PZ         0.00000   0.00000  -1.75669   0.07127  -1.24677
  10        4XX         0.00000   0.00000  -0.54190  -0.76928  -1.05795
  11        4YY         0.00000   0.00000  -0.55594  -0.77359  -1.06652
  12        4ZZ         0.00000   0.00000   1.28373  -1.13792  -1.25216
  13        4XY         0.00000   0.00000   0.00000   0.00000   0.00000
  14        4XZ         1.13822   0.00000   0.00000   0.00000   0.00000
  15        4YZ         0.00000   1.13798   0.00000   0.00000   0.00000
  16 2   N  1S          0.00000   0.00000   0.00465  -0.23314   0.35728
  17        2S          0.00000   0.00000  -0.59933   1.31072  -0.48144
  18        2PX         0.27217   0.00000   0.00000   0.00000   0.00000
  19        2PY         0.00000   0.27645   0.00000   0.00000   0.00000
  20        2PZ         0.00000   0.00000  -1.15647   0.14642   0.49016
  21        3S          0.00000   0.00000  -3.43584   0.79773  -4.05186
  22        3PX         0.49961   0.00000   0.00000   0.00000   0.00000
  23        3PY         0.00000   0.49724   0.00000   0.00000   0.00000
  24        3PZ         0.00000   0.00000  -1.75669  -0.07127  -1.24677
  25        4XX         0.00000   0.00000   0.54190  -0.76928   1.05795
  26        4YY         0.00000   0.00000   0.55594  -0.77359   1.06652
  27        4ZZ         0.00000   0.00000  -1.28373  -1.13792   1.25216
  28        4XY         0.00000   0.00000   0.00000   0.00000   0.00000
  29        4XZ         1.13822   0.00000   0.00000   0.00000   0.00000
  30        4YZ         0.00000   1.13798   0.00000   0.00000   0.00000
     Beta Molecular Orbital Coefficients:
                           1         2         3         4         5
                       (SGG)--O  (SGU)--O  (SGG)--O  (SGU)--O      O
     Eigenvalues --   -16.18051 -16.17716  -1.91192  -1.16592  -1.05708
   1 1   N  1S          0.70356   0.70427  -0.15812  -0.14777   0.00000
   2        2S          0.01597   0.01676   0.34978   0.35922   0.00000
   3        2PX         0.00000   0.00000   0.00000   0.00000   0.00000
   4        2PY         0.00000   0.00000   0.00000   0.00000   0.46809
   5        2PZ        -0.00179  -0.00334  -0.25156   0.23824   0.00000
   6        3S          0.00012  -0.00096   0.14849   0.52325   0.00000
   7        3PX         0.00000   0.00000   0.00000   0.00000   0.00000
   8        3PY         0.00000   0.00000   0.00000   0.00000   0.20923
   9        3PZ         0.00066   0.00017  -0.03047   0.02652   0.00000
  10        4XX        -0.00297  -0.00274  -0.02560  -0.00113   0.00000
  11        4YY        -0.00230  -0.00224  -0.00709   0.00606   0.00000
  12        4ZZ        -0.00163   0.00030   0.04018  -0.01520   0.00000
  13        4XY         0.00000   0.00000   0.00000   0.00000   0.00000
  14        4XZ         0.00000   0.00000   0.00000   0.00000   0.00000
  15        4YZ         0.00000   0.00000   0.00000   0.00000  -0.05820
  16 2   N  1S          0.70356  -0.70427  -0.15812   0.14777   0.00000
  17        2S          0.01597  -0.01676   0.34978  -0.35922   0.00000
  18        2PX         0.00000   0.00000   0.00000   0.00000   0.00000
  19        2PY         0.00000   0.00000   0.00000   0.00000   0.46809
  20        2PZ         0.00179  -0.00334   0.25156   0.23824   0.00000
  21        3S          0.00012   0.00096   0.14849  -0.52325   0.00000
  22        3PX         0.00000   0.00000   0.00000   0.00000   0.00000
  23        3PY         0.00000   0.00000   0.00000   0.00000   0.20923
  24        3PZ        -0.00066   0.00017   0.03047   0.02652   0.00000
  25        4XX        -0.00297   0.00274  -0.02560   0.00113   0.00000
  26        4YY        -0.00230   0.00224  -0.00709  -0.00606   0.00000
  27        4ZZ        -0.00163  -0.00030   0.04018   0.01520   0.00000
  28        4XY         0.00000   0.00000   0.00000   0.00000   0.00000
  29        4XZ         0.00000   0.00000   0.00000   0.00000   0.00000
  30        4YZ         0.00000   0.00000   0.00000   0.00000   0.05820
                           6         7         8         9        10
                       (SGG)--O      V         V         V     (SGU)--V
     Eigenvalues --    -1.04599  -0.52717  -0.21840  -0.12161   0.28262
   1 1   N  1S         -0.06408   0.00000   0.00000   0.00000  -0.09083
   2        2S          0.15163   0.00000   0.00000   0.00000   0.23645
   3        2PX         0.00000   0.40793   0.00000   0.44283   0.00000
   4        2PY         0.00000   0.00000   0.49457   0.00000   0.00000
   5        2PZ         0.47004   0.00000   0.00000   0.00000  -0.10510
   6        3S          0.30404   0.00000   0.00000   0.00000   4.16220
   7        3PX         0.00000   0.27173   0.00000   0.68032   0.00000
   8        3PY         0.00000   0.00000   0.59468   0.00000   0.00000
   9        3PZ         0.15818   0.00000   0.00000   0.00000  -2.70600
  10        4XX         0.00888   0.00000   0.00000   0.00000   0.00316
  11        4YY         0.01565   0.00000   0.00000   0.00000   0.00801
  12        4ZZ        -0.02839   0.00000   0.00000   0.00000   0.05031
  13        4XY         0.00000   0.00000   0.00000   0.00000   0.00000
  14        4XZ         0.00000  -0.04066   0.00000   0.01256   0.00000
  15        4YZ         0.00000   0.00000   0.01400   0.00000   0.00000
  16 2   N  1S         -0.06408   0.00000   0.00000   0.00000   0.09083
  17        2S          0.15163   0.00000   0.00000   0.00000  -0.23645
  18        2PX         0.00000   0.40793   0.00000  -0.44283   0.00000
  19        2PY         0.00000   0.00000  -0.49457   0.00000   0.00000
  20        2PZ        -0.47004   0.00000   0.00000   0.00000  -0.10510
  21        3S          0.30404   0.00000   0.00000   0.00000  -4.16220
  22        3PX         0.00000   0.27173   0.00000  -0.68032   0.00000
  23        3PY         0.00000   0.00000  -0.59468   0.00000   0.00000
  24        3PZ        -0.15818   0.00000   0.00000   0.00000  -2.70600
  25        4XX         0.00888   0.00000   0.00000   0.00000  -0.00316
  26        4YY         0.01565   0.00000   0.00000   0.00000  -0.00801
  27        4ZZ        -0.02839   0.00000   0.00000   0.00000  -0.05031
  28        4XY         0.00000   0.00000   0.00000   0.00000   0.00000
  29        4XZ         0.00000   0.04066   0.00000   0.01256   0.00000
  30        4YZ         0.00000   0.00000   0.01400   0.00000   0.00000
                          11        12        13        14        15
                       (SGG)--V      V     (SGG)--V      V         V
     Eigenvalues --     0.40857   0.45684   0.49654   0.50051   0.64990
   1 1   N  1S          0.02778   0.00000   0.00947   0.00000   0.00000
   2        2S          0.62078   0.00000  -0.57401   0.00000   0.00000
   3        2PX         0.00000   0.00000   0.00000   0.64759   0.00000
   4        2PY         0.00000  -0.60002   0.00000   0.00000  -0.69278
   5        2PZ        -0.23077   0.00000  -0.43362   0.00000   0.00000
   6        3S         -0.55900   0.00000   0.94985   0.00000   0.00000
   7        3PX         0.00000   0.00000   0.00000  -0.60784   0.00000
   8        3PY         0.00000   0.63176   0.00000   0.00000   1.23223
   9        3PZ         0.78292   0.00000   0.60750   0.00000   0.00000
  10        4XX         0.08995   0.00000  -0.13685   0.00000   0.00000
  11        4YY         0.07718   0.00000  -0.14272   0.00000   0.00000
  12        4ZZ         0.18965   0.00000  -0.13475   0.00000   0.00000
  13        4XY         0.00000   0.00000   0.00000   0.00000   0.00000
  14        4XZ         0.00000   0.00000   0.00000  -0.10066   0.00000
  15        4YZ         0.00000   0.10106   0.00000   0.00000  -0.06100
  16 2   N  1S          0.02778   0.00000   0.00947   0.00000   0.00000
  17        2S          0.62078   0.00000  -0.57401   0.00000   0.00000
  18        2PX         0.00000   0.00000   0.00000   0.64759   0.00000
  19        2PY         0.00000  -0.60002   0.00000   0.00000   0.69278
  20        2PZ         0.23077   0.00000   0.43362   0.00000   0.00000
  21        3S         -0.55900   0.00000   0.94985   0.00000   0.00000
  22        3PX         0.00000   0.00000   0.00000  -0.60784   0.00000
  23        3PY         0.00000   0.63176   0.00000   0.00000  -1.23223
  24        3PZ        -0.78292   0.00000  -0.60750   0.00000   0.00000
  25        4XX         0.08995   0.00000  -0.13685   0.00000   0.00000
  26        4YY         0.07718   0.00000  -0.14272   0.00000   0.00000
  27        4ZZ         0.18965   0.00000  -0.13475   0.00000   0.00000
  28        4XY         0.00000   0.00000   0.00000   0.00000   0.00000
  29        4XZ         0.00000   0.00000   0.00000   0.10066   0.00000
  30        4YZ         0.00000  -0.10106   0.00000   0.00000  -0.06100
                          16        17        18        19        20
                           V     (SGU)--V  (SGU)--V  (DLTG)--  (DLTG)--
     Eigenvalues --     0.68300   0.69051   1.13542   1.31525   1.31613
   1 1   N  1S          0.00000  -0.07851  -0.01925   0.00000   0.00358
   2        2S          0.00000  -0.33793  -1.24538   0.00000   0.00254
   3        2PX        -0.72475   0.00000   0.00000   0.00000   0.00000
   4        2PY         0.00000   0.00000   0.00000   0.00000   0.00000
   5        2PZ         0.00000  -0.67726   0.32135   0.00000  -0.00647
   6        3S          0.00000   2.05182   7.25891   0.00000  -0.00846
   7        3PX         1.18941   0.00000   0.00000   0.00000   0.00000
   8        3PY         0.00000   0.00000   0.00000   0.00000   0.00000
   9        3PZ         0.00000  -0.35068  -3.27019   0.00000   0.01642
  10        4XX         0.00000  -0.02584  -0.24077   0.00000  -0.55687
  11        4YY         0.00000  -0.02336  -0.25447   0.00000   0.56560
  12        4ZZ         0.00000  -0.34222   0.07141   0.00000  -0.00554
  13        4XY         0.00000   0.00000   0.00000   0.64823   0.00000
  14        4XZ        -0.06889   0.00000   0.00000   0.00000   0.00000
  15        4YZ         0.00000   0.00000   0.00000   0.00000   0.00000
  16 2   N  1S          0.00000   0.07851   0.01925   0.00000   0.00358
  17        2S          0.00000   0.33793   1.24538   0.00000   0.00254
  18        2PX         0.72475   0.00000   0.00000   0.00000   0.00000
  19        2PY         0.00000   0.00000   0.00000   0.00000   0.00000
  20        2PZ         0.00000  -0.67726   0.32135   0.00000   0.00647
  21        3S          0.00000  -2.05182  -7.25891   0.00000  -0.00846
  22        3PX        -1.18941   0.00000   0.00000   0.00000   0.00000
  23        3PY         0.00000   0.00000   0.00000   0.00000   0.00000
  24        3PZ         0.00000  -0.35068  -3.27019   0.00000  -0.01642
  25        4XX         0.00000   0.02584   0.24077   0.00000  -0.55687
  26        4YY         0.00000   0.02336   0.25447   0.00000   0.56560
  27        4ZZ         0.00000   0.34222  -0.07141   0.00000  -0.00554
  28        4XY         0.00000   0.00000   0.00000   0.64823   0.00000
  29        4XZ        -0.06889   0.00000   0.00000   0.00000   0.00000
  30        4YZ         0.00000   0.00000   0.00000   0.00000   0.00000
                          21        22        23        24        25
                       (PIU)--V  (PIU)--V  (DLTU)--  (DLTU)--  (SGG)--V
     Eigenvalues --     1.44468   1.46350   1.85978   1.85989   2.33458
   1 1   N  1S          0.00000   0.00000   0.00000   0.00077   0.13911
   2        2S          0.00000   0.00000   0.00000   0.01170   0.33599
   3        2PX         0.00000   0.29611   0.00000   0.00000   0.00000
   4        2PY         0.30712   0.00000   0.00000   0.00000   0.00000
   5        2PZ         0.00000   0.00000   0.00000  -0.00410  -0.33375
   6        3S          0.00000   0.00000   0.00000  -0.07418  -0.54953
   7        3PX         0.00000  -0.07370   0.00000   0.00000   0.00000
   8        3PY        -0.07646   0.00000   0.00000   0.00000   0.00000
   9        3PZ         0.00000   0.00000   0.00000   0.03066   0.59297
  10        4XX         0.00000   0.00000   0.00000   0.68821   0.69684
  11        4YY         0.00000   0.00000   0.00000  -0.67243   0.68805
  12        4ZZ         0.00000   0.00000   0.00000   0.00242  -0.55051
  13        4XY         0.00000   0.00000   0.78563   0.00000   0.00000
  14        4XZ         0.00000   0.59694   0.00000   0.00000   0.00000
  15        4YZ         0.59542   0.00000   0.00000   0.00000   0.00000
  16 2   N  1S          0.00000   0.00000   0.00000  -0.00077   0.13911
  17        2S          0.00000   0.00000   0.00000  -0.01170   0.33599
  18        2PX         0.00000   0.29611   0.00000   0.00000   0.00000
  19        2PY         0.30712   0.00000   0.00000   0.00000   0.00000
  20        2PZ         0.00000   0.00000   0.00000  -0.00410   0.33375
  21        3S          0.00000   0.00000   0.00000   0.07418  -0.54953
  22        3PX         0.00000  -0.07370   0.00000   0.00000   0.00000
  23        3PY        -0.07646   0.00000   0.00000   0.00000   0.00000
  24        3PZ         0.00000   0.00000   0.00000   0.03066  -0.59297
  25        4XX         0.00000   0.00000   0.00000  -0.68821   0.69684
  26        4YY         0.00000   0.00000   0.00000   0.67243   0.68805
  27        4ZZ         0.00000   0.00000   0.00000  -0.00242  -0.55051
  28        4XY         0.00000   0.00000  -0.78563   0.00000   0.00000
  29        4XZ         0.00000  -0.59694   0.00000   0.00000   0.00000
  30        4YZ        -0.59542   0.00000   0.00000   0.00000   0.00000
                          26        27        28        29        30
                       (PIG)--V  (PIG)--V  (SGU)--V  (SGG)--V  (SGU)--V
     Eigenvalues --     2.55057   2.55405   2.84863   3.25494   3.59325
   1 1   N  1S          0.00000   0.00000  -0.00181  -0.23255  -0.35705
   2        2S          0.00000   0.00000   0.59589   1.31552   0.48946
   3        2PX        -0.28441   0.00000   0.00000   0.00000   0.00000
   4        2PY         0.00000  -0.27876   0.00000   0.00000   0.00000
   5        2PZ         0.00000   0.00000  -1.16170  -0.14555   0.48279
   6        3S          0.00000   0.00000   3.39790   0.79278   4.05350
   7        3PX        -0.49103   0.00000   0.00000   0.00000   0.00000
   8        3PY         0.00000  -0.49660   0.00000   0.00000   0.00000
   9        3PZ         0.00000   0.00000  -1.74283   0.07425  -1.24962
  10        4XX         0.00000   0.00000  -0.54097  -0.76813  -1.06206
  11        4YY         0.00000   0.00000  -0.54285  -0.77030  -1.06802
  12        4ZZ         0.00000   0.00000   1.29124  -1.13822  -1.24370
  13        4XY         0.00000   0.00000   0.00000   0.00000   0.00000
  14        4XZ         1.13741   0.00000   0.00000   0.00000   0.00000
  15        4YZ         0.00000   1.13785   0.00000   0.00000   0.00000
  16 2   N  1S          0.00000   0.00000   0.00181  -0.23255   0.35705
  17        2S          0.00000   0.00000  -0.59589   1.31552  -0.48946
  18        2PX         0.28441   0.00000   0.00000   0.00000   0.00000
  19        2PY         0.00000   0.27876   0.00000   0.00000   0.00000
  20        2PZ         0.00000   0.00000  -1.16170   0.14555   0.48279
  21        3S          0.00000   0.00000  -3.39790   0.79278  -4.05350
  22        3PX         0.49103   0.00000   0.00000   0.00000   0.00000
  23        3PY         0.00000   0.49660   0.00000   0.00000   0.00000
  24        3PZ         0.00000   0.00000  -1.74283  -0.07425  -1.24962
  25        4XX         0.00000   0.00000   0.54097  -0.76813   1.06206
  26        4YY         0.00000   0.00000   0.54285  -0.77030   1.06802
  27        4ZZ         0.00000   0.00000  -1.29124  -1.13822   1.24370
  28        4XY         0.00000   0.00000   0.00000   0.00000   0.00000
  29        4XZ         1.13741   0.00000   0.00000   0.00000   0.00000
  30        4YZ         0.00000   1.13785   0.00000   0.00000   0.00000
     Alpha Density Matrix:
                           1         2         3         4         5
   1 1   N  1S          1.04224
   2        2S         -0.09662   0.28438
   3        2PX         0.00000   0.00000   0.22460
   4        2PY         0.00000   0.00000   0.00000   0.22101
   5        2PZ        -0.02948   0.07131   0.00000   0.00000   0.33805
   6        3S         -0.12652   0.30388   0.00000   0.00000   0.23431
   7        3PX         0.00000   0.00000   0.09531   0.00000   0.00000
   8        3PY         0.00000   0.00000   0.00000   0.09704   0.00000
   9        3PZ        -0.00309   0.00988   0.00000   0.00000   0.08028
  10        4XX        -0.00619   0.00599   0.00000   0.00000   0.01269
  11        4YY        -0.00185  -0.00474   0.00000   0.00000   0.00963
  12        4ZZ        -0.00136  -0.00237   0.00000   0.00000  -0.03148
  13        4XY         0.00000   0.00000   0.00000   0.00000   0.00000
  14        4XZ         0.00000   0.00000  -0.03040   0.00000   0.00000
  15        4YZ         0.00000   0.00000   0.00000  -0.02833   0.00000
  16 2   N  1S          0.00529  -0.00909   0.00000   0.00000   0.04463
  17        2S         -0.00909   0.00629   0.00000   0.00000  -0.09924
  18        2PX         0.00000   0.00000   0.22460   0.00000   0.00000
  19        2PY         0.00000   0.00000   0.00000   0.22101   0.00000
  20        2PZ        -0.04463   0.09924   0.00000   0.00000  -0.23304
  21        3S          0.04227  -0.10985   0.00000   0.00000  -0.02022
  22        3PX         0.00000   0.00000   0.09531   0.00000   0.00000
  23        3PY         0.00000   0.00000   0.00000   0.09704   0.00000
  24        3PZ         0.00324  -0.00983   0.00000   0.00000  -0.08026
  25        4XX         0.00158  -0.00386   0.00000   0.00000   0.00656
  26        4YY         0.00196  -0.00420   0.00000   0.00000   0.00988
  27        4ZZ        -0.00842   0.01598   0.00000   0.00000  -0.02020
  28        4XY         0.00000   0.00000   0.00000   0.00000   0.00000
  29        4XZ         0.00000   0.00000   0.03040   0.00000   0.00000
  30        4YZ         0.00000   0.00000   0.00000   0.02833   0.00000
                           6         7         8         9        10
   6        3S          0.42104
   7        3PX         0.00000   0.04044
   8        3PY         0.00000   0.00000   0.04261
   9        3PZ         0.03987   0.00000   0.00000   0.02388
  10        4XX         0.01214   0.00000   0.00000   0.00285   0.00053
  11        4YY         0.00054   0.00000   0.00000   0.00236   0.00029
  12        4ZZ        -0.01941   0.00000   0.00000  -0.00673  -0.00113
  13        4XY         0.00000   0.00000   0.00000   0.00000   0.00000
  14        4XZ         0.00000  -0.01290   0.00000   0.00000   0.00000
  15        4YZ         0.00000   0.00000  -0.01244   0.00000   0.00000
  16 2   N  1S          0.04227   0.00000   0.00000  -0.00324   0.00158
  17        2S         -0.10985   0.00000   0.00000   0.00983  -0.00386
  18        2PX         0.00000   0.09531   0.00000   0.00000   0.00000
  19        2PY         0.00000   0.00000   0.09704   0.00000   0.00000
  20        2PZ         0.02022   0.00000   0.00000  -0.08026  -0.00656
  21        3S         -0.19599   0.00000   0.00000   0.03981  -0.00269
  22        3PX         0.00000   0.04044   0.00000   0.00000   0.00000
  23        3PY         0.00000   0.00000   0.04261   0.00000   0.00000
  24        3PZ        -0.03981   0.00000   0.00000  -0.02388  -0.00285
  25        4XX        -0.00269   0.00000   0.00000   0.00285   0.00016
  26        4YY         0.00118   0.00000   0.00000   0.00236   0.00029
  27        4ZZ         0.00794   0.00000   0.00000  -0.00673  -0.00048
  28        4XY         0.00000   0.00000   0.00000   0.00000   0.00000
  29        4XZ         0.00000   0.01290   0.00000   0.00000   0.00000
  30        4YZ         0.00000   0.00000   0.01244   0.00000   0.00000
                          11        12        13        14        15
  11        4YY         0.00046
  12        4ZZ        -0.00101   0.00317
  13        4XY         0.00000   0.00000   0.00000
  14        4XZ         0.00000   0.00000   0.00000   0.00412
  15        4YZ         0.00000   0.00000   0.00000   0.00000   0.00363
  16 2   N  1S          0.00196  -0.00842   0.00000   0.00000   0.00000
  17        2S         -0.00420   0.01598   0.00000   0.00000   0.00000
  18        2PX         0.00000   0.00000   0.00000  -0.03040   0.00000
  19        2PY         0.00000   0.00000   0.00000   0.00000  -0.02833
  20        2PZ        -0.00988   0.02020   0.00000   0.00000   0.00000
  21        3S          0.00118   0.00794   0.00000   0.00000   0.00000
  22        3PX         0.00000   0.00000   0.00000  -0.01290   0.00000
  23        3PY         0.00000   0.00000   0.00000   0.00000  -0.01244
  24        3PZ        -0.00236   0.00673   0.00000   0.00000   0.00000
  25        4XX         0.00029  -0.00048   0.00000   0.00000   0.00000
  26        4YY         0.00044  -0.00104   0.00000   0.00000   0.00000
  27        4ZZ        -0.00104   0.00195   0.00000   0.00000   0.00000
  28        4XY         0.00000   0.00000   0.00000   0.00000   0.00000
  29        4XZ         0.00000   0.00000   0.00000  -0.00412   0.00000
  30        4YZ         0.00000   0.00000   0.00000   0.00000  -0.00363
                          16        17        18        19        20
  16 2   N  1S          1.04224
  17        2S         -0.09662   0.28438
  18        2PX         0.00000   0.00000   0.22460
  19        2PY         0.00000   0.00000   0.00000   0.22101
  20        2PZ         0.02948  -0.07131   0.00000   0.00000   0.33805
  21        3S         -0.12652   0.30388   0.00000   0.00000  -0.23431
  22        3PX         0.00000   0.00000   0.09531   0.00000   0.00000
  23        3PY         0.00000   0.00000   0.00000   0.09704   0.00000
  24        3PZ         0.00309  -0.00988   0.00000   0.00000   0.08028
  25        4XX        -0.00619   0.00599   0.00000   0.00000  -0.01269
  26        4YY        -0.00185  -0.00474   0.00000   0.00000  -0.00963
  27        4ZZ        -0.00136  -0.00237   0.00000   0.00000   0.03148
  28        4XY         0.00000   0.00000   0.00000   0.00000   0.00000
  29        4XZ         0.00000   0.00000   0.03040   0.00000   0.00000
  30        4YZ         0.00000   0.00000   0.00000   0.02833   0.00000
                          21        22        23        24        25
  21        3S          0.42104
  22        3PX         0.00000   0.04044
  23        3PY         0.00000   0.00000   0.04261
  24        3PZ        -0.03987   0.00000   0.00000   0.02388
  25        4XX         0.01214   0.00000   0.00000  -0.00285   0.00053
  26        4YY         0.00054   0.00000   0.00000  -0.00236   0.00029
  27        4ZZ        -0.01941   0.00000   0.00000   0.00673  -0.00113
  28        4XY         0.00000   0.00000   0.00000   0.00000   0.00000
  29        4XZ         0.00000   0.01290   0.00000   0.00000   0.00000
  30        4YZ         0.00000   0.00000   0.01244   0.00000   0.00000
                          26        27        28        29        30
  26        4YY         0.00046
  27        4ZZ        -0.00101   0.00317
  28        4XY         0.00000   0.00000   0.00000
  29        4XZ         0.00000   0.00000   0.00000   0.00412
  30        4YZ         0.00000   0.00000   0.00000   0.00000   0.00363
     Beta Density Matrix:
                           1         2         3         4         5
   1 1   N  1S          1.04193
   2        2S         -0.09506   0.27491
   3        2PX         0.00000   0.00000   0.00000
   4        2PY         0.00000   0.00000   0.00000   0.21911
   5        2PZ        -0.02916   0.06878   0.00000   0.00000   0.34099
   6        3S         -0.12088   0.28599   0.00000   0.00000   0.23022
   7        3PX         0.00000   0.00000   0.00000   0.00000   0.00000
   8        3PY         0.00000   0.00000   0.00000   0.09794   0.00000
   9        3PZ        -0.00866   0.02287   0.00000   0.00000   0.08834
  10        4XX        -0.00037  -0.00811   0.00000   0.00000   0.01036
  11        4YY        -0.00397   0.00199   0.00000   0.00000   0.01059
  12        4ZZ        -0.00323   0.00427   0.00000   0.00000  -0.02707
  13        4XY         0.00000   0.00000   0.00000   0.00000   0.00000
  14        4XZ         0.00000   0.00000   0.00000   0.00000   0.00000
  15        4YZ         0.00000   0.00000   0.00000  -0.02724   0.00000
  16 2   N  1S          0.00627  -0.01251   0.00000   0.00000   0.04595
  17        2S         -0.01251   0.01628   0.00000   0.00000  -0.10227
  18        2PX         0.00000   0.00000   0.00000   0.00000   0.00000
  19        2PY         0.00000   0.00000   0.00000   0.21911   0.00000
  20        2PZ        -0.04595   0.10227   0.00000   0.00000  -0.22746
  21        3S          0.03512  -0.08990   0.00000   0.00000  -0.01911
  22        3PX         0.00000   0.00000   0.00000   0.00000   0.00000
  23        3PY         0.00000   0.00000   0.00000   0.09794   0.00000
  24        3PZ         0.00106  -0.00381   0.00000   0.00000  -0.07570
  25        4XX         0.00315  -0.00720   0.00000   0.00000   0.01088
  26        4YY         0.00097  -0.00228   0.00000   0.00000   0.00769
  27        4ZZ        -0.00814   0.01518   0.00000   0.00000  -0.01983
  28        4XY         0.00000   0.00000   0.00000   0.00000   0.00000
  29        4XZ         0.00000   0.00000   0.00000   0.00000   0.00000
  30        4YZ         0.00000   0.00000   0.00000   0.02724   0.00000
                           6         7         8         9        10
   6        3S          0.38828
   7        3PX         0.00000   0.00000
   8        3PY         0.00000   0.00000   0.04378
   9        3PZ         0.05745   0.00000   0.00000   0.02665
  10        4XX        -0.00169   0.00000   0.00000   0.00215   0.00075
  11        4YY         0.00688   0.00000   0.00000   0.00285   0.00033
  12        4ZZ        -0.01062   0.00000   0.00000  -0.00612  -0.00126
  13        4XY         0.00000   0.00000   0.00000   0.00000   0.00000
  14        4XZ         0.00000   0.00000   0.00000   0.00000   0.00000
  15        4YZ         0.00000   0.00000  -0.01218   0.00000   0.00000
  16 2   N  1S          0.03512   0.00000   0.00000  -0.00106   0.00315
  17        2S         -0.08990   0.00000   0.00000   0.00381  -0.00720
  18        2PX         0.00000   0.00000   0.00000   0.00000   0.00000
  19        2PY         0.00000   0.00000   0.09794   0.00000   0.00000
  20        2PZ         0.01911   0.00000   0.00000  -0.07570  -0.01088
  21        3S         -0.15930   0.00000   0.00000   0.02969  -0.00051
  22        3PX         0.00000   0.00000   0.00000   0.00000   0.00000
  23        3PY         0.00000   0.00000   0.04378   0.00000   0.00000
  24        3PZ        -0.02969   0.00000   0.00000  -0.02525  -0.00221
  25        4XX        -0.00051   0.00000   0.00000   0.00221   0.00073
  26        4YY         0.00053   0.00000   0.00000   0.00253   0.00033
  27        4ZZ         0.00529   0.00000   0.00000  -0.00531  -0.00129
  28        4XY         0.00000   0.00000   0.00000   0.00000   0.00000
  29        4XZ         0.00000   0.00000   0.00000   0.00000   0.00000
  30        4YZ         0.00000   0.00000   0.01218   0.00000   0.00000
                          11        12        13        14        15
  11        4YY         0.00034
  12        4ZZ        -0.00082   0.00265
  13        4XY         0.00000   0.00000   0.00000
  14        4XZ         0.00000   0.00000   0.00000   0.00000
  15        4YZ         0.00000   0.00000   0.00000   0.00000   0.00339
  16 2   N  1S          0.00097  -0.00814   0.00000   0.00000   0.00000
  17        2S         -0.00228   0.01518   0.00000   0.00000   0.00000
  18        2PX         0.00000   0.00000   0.00000   0.00000   0.00000
  19        2PY         0.00000   0.00000   0.00000   0.00000  -0.02724
  20        2PZ        -0.00769   0.01983   0.00000   0.00000   0.00000
  21        3S          0.00053   0.00529   0.00000   0.00000   0.00000
  22        3PX         0.00000   0.00000   0.00000   0.00000   0.00000
  23        3PY         0.00000   0.00000   0.00000   0.00000  -0.01218
  24        3PZ        -0.00253   0.00531   0.00000   0.00000   0.00000
  25        4XX         0.00033  -0.00129   0.00000   0.00000   0.00000
  26        4YY         0.00026  -0.00063   0.00000   0.00000   0.00000
  27        4ZZ        -0.00063   0.00219   0.00000   0.00000   0.00000
  28        4XY         0.00000   0.00000   0.00000   0.00000   0.00000
  29        4XZ         0.00000   0.00000   0.00000   0.00000   0.00000
  30        4YZ         0.00000   0.00000   0.00000   0.00000  -0.00339
                          16        17        18        19        20
  16 2   N  1S          1.04193
  17        2S         -0.09506   0.27491
  18        2PX         0.00000   0.00000   0.00000
  19        2PY         0.00000   0.00000   0.00000   0.21911
  20        2PZ         0.02916  -0.06878   0.00000   0.00000   0.34099
  21        3S         -0.12088   0.28599   0.00000   0.00000  -0.23022
  22        3PX         0.00000   0.00000   0.00000   0.00000   0.00000
  23        3PY         0.00000   0.00000   0.00000   0.09794   0.00000
  24        3PZ         0.00866  -0.02287   0.00000   0.00000   0.08834
  25        4XX        -0.00037  -0.00811   0.00000   0.00000  -0.01036
  26        4YY        -0.00397   0.00199   0.00000   0.00000  -0.01059
  27        4ZZ        -0.00323   0.00427   0.00000   0.00000   0.02707
  28        4XY         0.00000   0.00000   0.00000   0.00000   0.00000
  29        4XZ         0.00000   0.00000   0.00000   0.00000   0.00000
  30        4YZ         0.00000   0.00000   0.00000   0.02724   0.00000
                          21        22        23        24        25
  21        3S          0.38828
  22        3PX         0.00000   0.00000
  23        3PY         0.00000   0.00000   0.04378
  24        3PZ        -0.05745   0.00000   0.00000   0.02665
  25        4XX        -0.00169   0.00000   0.00000  -0.00215   0.00075
  26        4YY         0.00688   0.00000   0.00000  -0.00285   0.00033
  27        4ZZ        -0.01062   0.00000   0.00000   0.00612  -0.00126
  28        4XY         0.00000   0.00000   0.00000   0.00000   0.00000
  29        4XZ         0.00000   0.00000   0.00000   0.00000   0.00000
  30        4YZ         0.00000   0.00000   0.01218   0.00000   0.00000
                          26        27        28        29        30
  26        4YY         0.00034
  27        4ZZ        -0.00082   0.00265
  28        4XY         0.00000   0.00000   0.00000
  29        4XZ         0.00000   0.00000   0.00000   0.00000
  30        4YZ         0.00000   0.00000   0.00000   0.00000   0.00339
    Full Mulliken population analysis:
                           1         2         3         4         5
   1 1   N  1S          2.08417
   2        2S         -0.04260   0.55929
   3        2PX         0.00000   0.00000   0.22460
   4        2PY         0.00000   0.00000   0.00000   0.44013
   5        2PZ         0.00000   0.00000   0.00000   0.00000   0.67904
   6        3S         -0.04252   0.45745   0.00000   0.00000   0.00000
   7        3PX         0.00000   0.00000   0.04949   0.00000   0.00000
   8        3PY         0.00000   0.00000   0.00000   0.10125   0.00000
   9        3PZ         0.00000   0.00000   0.00000   0.00000   0.08756
  10        4XX        -0.00033  -0.00135   0.00000   0.00000   0.00000
  11        4YY        -0.00029  -0.00175   0.00000   0.00000   0.00000
  12        4ZZ        -0.00023   0.00121   0.00000   0.00000   0.00000
  13        4XY         0.00000   0.00000   0.00000   0.00000   0.00000
  14        4XZ         0.00000   0.00000   0.00000   0.00000   0.00000
  15        4YZ         0.00000   0.00000   0.00000   0.00000   0.00000
  16 2   N  1S          0.00000  -0.00057   0.00000   0.00000  -0.00495
  17        2S         -0.00057   0.00532   0.00000   0.00000   0.06331
  18        2PX         0.00000   0.00000   0.03064   0.00000   0.00000
  19        2PY         0.00000   0.00000   0.00000   0.06005   0.00000
  20        2PZ        -0.00495   0.06331   0.00000   0.00000   0.16154
  21        3S          0.00567  -0.07863   0.00000   0.00000   0.00946
  22        3PX         0.00000   0.00000   0.02443   0.00000   0.00000
  23        3PY         0.00000   0.00000   0.00000   0.04998   0.00000
  24        3PZ         0.00057  -0.00777   0.00000   0.00000   0.01640
  25        4XX         0.00001  -0.00143   0.00000   0.00000  -0.00284
  26        4YY         0.00001  -0.00084   0.00000   0.00000  -0.00286
  27        4ZZ        -0.00218   0.01515   0.00000   0.00000   0.01753
  28        4XY         0.00000   0.00000   0.00000   0.00000   0.00000
  29        4XZ         0.00000   0.00000   0.00931   0.00000   0.00000
  30        4YZ         0.00000   0.00000   0.00000   0.01702   0.00000
                           6         7         8         9        10
   6        3S          0.80932
   7        3PX         0.00000   0.04044
   8        3PY         0.00000   0.00000   0.08639
   9        3PZ         0.00000   0.00000   0.00000   0.05053
  10        4XX         0.00700   0.00000   0.00000   0.00000   0.00129
  11        4YY         0.00497   0.00000   0.00000   0.00000   0.00021
  12        4ZZ        -0.02012   0.00000   0.00000   0.00000  -0.00080
  13        4XY         0.00000   0.00000   0.00000   0.00000   0.00000
  14        4XZ         0.00000   0.00000   0.00000   0.00000   0.00000
  15        4YZ         0.00000   0.00000   0.00000   0.00000   0.00000
  16 2   N  1S          0.00567   0.00000   0.00000   0.00057   0.00001
  17        2S         -0.07863   0.00000   0.00000  -0.00777  -0.00143
  18        2PX         0.00000   0.02443   0.00000   0.00000   0.00000
  19        2PY         0.00000   0.00000   0.04998   0.00000   0.00000
  20        2PZ         0.00946   0.00000   0.00000   0.01640  -0.00284
  21        3S         -0.22876   0.00000   0.00000  -0.04199  -0.00107
  22        3PX         0.00000   0.02604   0.00000   0.00000   0.00000
  23        3PY         0.00000   0.00000   0.05562   0.00000   0.00000
  24        3PZ        -0.04199   0.00000   0.00000  -0.00378  -0.00251
  25        4XX        -0.00107   0.00000   0.00000  -0.00251   0.00017
  26        4YY         0.00057   0.00000   0.00000  -0.00242   0.00004
  27        4ZZ         0.00605   0.00000   0.00000   0.00501  -0.00048
  28        4XY         0.00000   0.00000   0.00000   0.00000   0.00000
  29        4XZ         0.00000   0.00294   0.00000   0.00000   0.00000
  30        4YZ         0.00000   0.00000   0.00560   0.00000   0.00000
                          11        12        13        14        15
  11        4YY         0.00080
  12        4ZZ        -0.00061   0.00582
  13        4XY         0.00000   0.00000   0.00000
  14        4XZ         0.00000   0.00000   0.00000   0.00412
  15        4YZ         0.00000   0.00000   0.00000   0.00000   0.00702
  16 2   N  1S          0.00001  -0.00218   0.00000   0.00000   0.00000
  17        2S         -0.00084   0.01515   0.00000   0.00000   0.00000
  18        2PX         0.00000   0.00000   0.00000   0.00931   0.00000
  19        2PY         0.00000   0.00000   0.00000   0.00000   0.01702
  20        2PZ        -0.00286   0.01753   0.00000   0.00000   0.00000
  21        3S          0.00057   0.00605   0.00000   0.00000   0.00000
  22        3PX         0.00000   0.00000   0.00000   0.00294   0.00000
  23        3PY         0.00000   0.00000   0.00000   0.00000   0.00560
  24        3PZ        -0.00242   0.00501   0.00000   0.00000   0.00000
  25        4XX         0.00004  -0.00048   0.00000   0.00000   0.00000
  26        4YY         0.00013  -0.00046   0.00000   0.00000   0.00000
  27        4ZZ        -0.00046   0.00194   0.00000   0.00000   0.00000
  28        4XY         0.00000   0.00000   0.00000   0.00000   0.00000
  29        4XZ         0.00000   0.00000   0.00000   0.00182   0.00000
  30        4YZ         0.00000   0.00000   0.00000   0.00000   0.00310
                          16        17        18        19        20
  16 2   N  1S          2.08417
  17        2S         -0.04260   0.55929
  18        2PX         0.00000   0.00000   0.22460
  19        2PY         0.00000   0.00000   0.00000   0.44013
  20        2PZ         0.00000   0.00000   0.00000   0.00000   0.67904
  21        3S         -0.04252   0.45745   0.00000   0.00000   0.00000
  22        3PX         0.00000   0.00000   0.04949   0.00000   0.00000
  23        3PY         0.00000   0.00000   0.00000   0.10125   0.00000
  24        3PZ         0.00000   0.00000   0.00000   0.00000   0.08756
  25        4XX        -0.00033  -0.00135   0.00000   0.00000   0.00000
  26        4YY        -0.00029  -0.00175   0.00000   0.00000   0.00000
  27        4ZZ        -0.00023   0.00121   0.00000   0.00000   0.00000
  28        4XY         0.00000   0.00000   0.00000   0.00000   0.00000
  29        4XZ         0.00000   0.00000   0.00000   0.00000   0.00000
  30        4YZ         0.00000   0.00000   0.00000   0.00000   0.00000
                          21        22        23        24        25
  21        3S          0.80932
  22        3PX         0.00000   0.04044
  23        3PY         0.00000   0.00000   0.08639
  24        3PZ         0.00000   0.00000   0.00000   0.05053
  25        4XX         0.00700   0.00000   0.00000   0.00000   0.00129
  26        4YY         0.00497   0.00000   0.00000   0.00000   0.00021
  27        4ZZ        -0.02012   0.00000   0.00000   0.00000  -0.00080
  28        4XY         0.00000   0.00000   0.00000   0.00000   0.00000
  29        4XZ         0.00000   0.00000   0.00000   0.00000   0.00000
  30        4YZ         0.00000   0.00000   0.00000   0.00000   0.00000
                          26        27        28        29        30
  26        4YY         0.00080
  27        4ZZ        -0.00061   0.00582
  28        4XY         0.00000   0.00000   0.00000
  29        4XZ         0.00000   0.00000   0.00000   0.00412
  30        4YZ         0.00000   0.00000   0.00000   0.00000   0.00702
     Gross orbital populations:
                         Total     Alpha     Beta      Spin
   1 1   N  1S          1.99677   0.99831   0.99846  -0.00015
   2        2S          0.96681   0.48817   0.47863   0.00954
   3        2PX         0.33848   0.33848   0.00000   0.33848
   4        2PY         0.66843   0.33511   0.33331   0.00180
   5        2PZ         1.02419   0.50969   0.51449  -0.00480
   6        3S          0.88741   0.44806   0.43935   0.00871
   7        3PX         0.14334   0.14334   0.00000   0.14334
   8        3PY         0.29884   0.14815   0.15070  -0.00255
   9        3PZ         0.10160   0.04316   0.05844  -0.01527
  10        4XX        -0.00209   0.00794  -0.01002   0.01796
  11        4YY        -0.00250  -0.00564   0.00313  -0.00877
  12        4ZZ         0.02782   0.01030   0.01751  -0.00721
  13        4XY         0.00000   0.00000   0.00000   0.00000
  14        4XZ         0.01818   0.01818   0.00000   0.01818
  15        4YZ         0.03273   0.01674   0.01599   0.00075
  16 2   N  1S          1.99677   0.99831   0.99846  -0.00015
  17        2S          0.96681   0.48817   0.47863   0.00954
  18        2PX         0.33848   0.33848   0.00000   0.33848
  19        2PY         0.66843   0.33511   0.33331   0.00180
  20        2PZ         1.02419   0.50969   0.51449  -0.00480
  21        3S          0.88741   0.44806   0.43935   0.00871
  22        3PX         0.14334   0.14334   0.00000   0.14334
  23        3PY         0.29884   0.14815   0.15070  -0.00255
  24        3PZ         0.10160   0.04316   0.05844  -0.01527
  25        4XX        -0.00209   0.00794  -0.01002   0.01796
  26        4YY        -0.00250  -0.00564   0.00313  -0.00877
  27        4ZZ         0.02782   0.01030   0.01751  -0.00721
  28        4XY         0.00000   0.00000   0.00000   0.00000
  29        4XZ         0.01818   0.01818   0.00000   0.01818
  30        4YZ         0.03273   0.01674   0.01599   0.00075
          Condensed to atoms (all electrons):
               1          2
     1  N    6.190046   0.309954
     2  N    0.309954   6.190046
          Atomic-Atomic Spin Densities.
               1          2
     1  N    0.421119   0.078881
     2  N    0.078881   0.421119
 Mulliken charges and spin densities:
               1          2
     1  N    0.500000   0.500000
     2  N    0.500000   0.500000
 Sum of Mulliken charges =   1.00000   1.00000
 Mulliken charges and spin densities with hydrogens summed into heavy atoms:
               1          2
     1  N    0.500000   0.500000
     2  N    0.500000   0.500000
 Atomic Valencies and Mayer Atomic Bond Orders:
               1          2
     1  N    1.875540   1.875540
     2  N    1.875540   1.875540
 Lowdin Atomic Charges:
               1
     1  N    0.500000
     2  N    0.500000
 Sum of Lowdin charges  =   1.00000
 Lowdin atomic charges with hydrogens summed into heavy atoms:
               1
     1  N    0.500000
     2  N    0.500000
 Sum of Lowdin charges  =   1.00000
 Dipole moment from Lowdin charges (Debye):
    X=     0.0000    Y=     0.0000    Z=     0.0000  Tot=     0.0000
 Electronic spatial extent (au):  <R**2>=             32.7677
 Charge=              1.0000 electrons
 Dipole moment (field-independent basis, Debye):
    X=              0.0000    Y=              0.0000    Z=              0.0000  Tot=              0.0000
 Quadrupole moment (field-independent basis, Debye-Ang):
   XX=             -7.4139   YY=             -8.6392   ZZ=             -8.4701
   XY=              0.0000   XZ=              0.0000   YZ=              0.0000
 Traceless Quadrupole moment (field-independent basis, Debye-Ang):
   XX=              0.7605   YY=             -0.4648   ZZ=             -0.2957
   XY=              0.0000   XZ=              0.0000   YZ=              0.0000
 Octapole moment (field-independent basis, Debye-Ang**2):
  XXX=              0.0000  YYY=              0.0000  ZZZ=              0.0000  XYY=              0.0000
  XXY=              0.0000  XXZ=              0.0000  XZZ=              0.0000  YZZ=              0.0000
  YYZ=              0.0000  XYZ=              0.0000
 Hexadecapole moment (field-independent basis, Debye-Ang**3):
 XXXX=             -4.9984 YYYY=             -6.4448 ZZZZ=            -23.7270 XXXY=              0.0000
 XXXZ=              0.0000 YYYX=              0.0000 YYYZ=              0.0000 ZZZX=              0.0000
 ZZZY=              0.0000 XXYY=             -1.9071 XXZZ=             -4.3644 YYZZ=             -4.8105
 XXYZ=              0.0000 YYXZ=              0.0000 ZZXY=              0.0000
 N-N= 2.404458755648D+01 E-N=-2.967394854123D+02  KE= 1.083458602497D+02
 Symmetry AG   KE= 5.376800847247D+01
 Symmetry B1G  KE= 1.484206230562D-34
 Symmetry B2G  KE= 1.946610945225D-32
 Symmetry B3G  KE= 4.626574634500D-32
 Symmetry AU   KE= 5.238259573224D-34
 Symmetry B1U  KE= 4.914743737674D+01
 Symmetry B2U  KE= 3.600776322812D+00
 Symmetry B3U  KE= 1.829638077671D+00
 Orbital energies and kinetic energies (alpha):
                                 1                 2
   1 (SGG)--O                -16.195118         22.059072
   2 (SGU)--O                -16.191033         22.104112
   3 (SGG)--O                 -2.020548          2.640505
   4 (SGU)--O                 -1.209865          2.495395
   5 (PIU)--O                 -1.137912          1.829638
   6 (PIU)--O                 -1.080834          1.806497
   7 (SGG)--O                 -1.066441          2.178165
   8 (PIG)--V                 -0.274575          2.121008
   9 (PIG)--V                 -0.231834          2.062074
  10 (SGU)--V                  0.266512          1.506905
  11 (SGG)--V                  0.386250          1.391660
  12 (PIU)--V                  0.418015          2.138497
  13 (PIU)--V                  0.449380          2.166040
  14 (SGG)--V                  0.487743          1.910689
  15 (PIG)--V                  0.615908          2.656684
  16 (PIG)--V                  0.642956          2.708455
  17 (SGU)--V                  0.675928          3.349735
  18 (SGU)--V                  1.111749          2.931512
  19 (DLTG)--V                 1.244570          2.587896
  20 (DLTG)--V                 1.244884          2.588673
  21 (PIU)--V                  1.393075          3.088966
  22 (PIU)--V                  1.436139          3.084564
  23 (DLTU)--V                 1.818385          3.111554
  24 (DLTU)--V                 1.818871          3.114536
  25 (SGG)--V                  2.316633          4.174276
  26 (PIG)--V                  2.514630          3.974956
  27 (PIG)--V                  2.549606          3.982120
  28 (SGU)--V                  2.839566          6.209124
  29 (SGG)--V                  3.230843          8.300008
  30 (SGU)--V                  3.578789          9.670535
 Orbital energies and kinetic energies (beta):
                                 1                 2
   1 (SGG)--O                -16.180510         22.084192
   2 (SGU)--O                -16.177158         22.126942
   3 (SGG)--O                 -1.911922          2.659935
   4 (SGU)--O                 -1.165916          2.420988
   5 O                        -1.057084          1.794279
   6 (SGG)--O                 -1.045985          2.146138
   7 V                        -0.527173          1.502904
   8 V                        -0.218405          2.028974
   9 V                        -0.121615          1.792359
  10 (SGU)--V                  0.282624          1.476655
  11 (SGG)--V                  0.408572          1.367447
  12 V                         0.456842          2.179987
  13 (SGG)--V                  0.496541          1.931709
  14 V                         0.500509          2.487015
  15 V                         0.649903          2.737700
  16 V                         0.682999          2.964767
  17 (SGU)--V                  0.690509          3.315441
  18 (SGU)--V                  1.135416          3.034167
  19 (DLTG)--V                 1.315252          2.587896
  20 (DLTG)--V                 1.316134          2.587500
  21 (PIU)--V                  1.444685          3.082834
  22 (PIU)--V                  1.463502          3.067182
  23 (DLTU)--V                 1.859781          3.111554
  24 (DLTU)--V                 1.859886          3.111520
  25 (SGG)--V                  2.334582          4.163268
  26 (PIG)--V                  2.550568          3.995523
  27 (PIG)--V                  2.554049          3.985975
  28 (SGU)--V                  2.848633          6.217068
  29 (SGG)--V                  3.254941          8.302860
  30 (SGU)--V                  3.593253          9.679071
 Total kinetic energy from orbitals= 1.083458602497D+02
                          Isotropic Fermi Contact Couplings
        Atom                 a.u.       MegaHertz       Gauss      10(-4) cm-1
     1  N(14)              0.03048       9.84922       3.51445       3.28535
     2  N(14)              0.03048       9.84922       3.51445       3.28535
 --------------------------------------------------------
       Center         ----  Spin Dipole Couplings  ----
                      3XX-RR        3YY-RR        3ZZ-RR
 --------------------------------------------------------
     1   Atom        1.155802     -0.633210     -0.522591
     2   Atom        1.155802     -0.633210     -0.522591
 --------------------------------------------------------
                        XY            XZ            YZ
 --------------------------------------------------------
     1   Atom        0.000000      0.000000      0.000000
     2   Atom        0.000000      0.000000      0.000000
 --------------------------------------------------------


 ---------------------------------------------------------------------------------
              Anisotropic Spin Dipole Couplings in Principal Axis System
 ---------------------------------------------------------------------------------

       Atom             a.u.   MegaHertz   Gauss  10(-4) cm-1        Axes

              Baa    -0.6332   -24.422    -8.714    -8.146  0.0000  1.0000  0.0000
     1 N(14)  Bbb    -0.5226   -20.155    -7.192    -6.723  0.0000  0.0000  1.0000
              Bcc     1.1558    44.577    15.906    14.869  1.0000  0.0000  0.0000
 
              Baa    -0.6332   -24.422    -8.714    -8.146  0.0000  1.0000  0.0000
     2 N(14)  Bbb    -0.5226   -20.155    -7.192    -6.723  0.0000  0.0000  1.0000
              Bcc     1.1558    44.577    15.906    14.869  1.0000  0.0000  0.0000
 

 ---------------------------------------------------------------------------------

 No NMR shielding tensors so no spin-rotation constants.
 Leave Link  601 at Wed Mar 25 12:53:57 2026, MaxMem=    33554432 cpu:         0.1
 (Enter /opt/g09/g09/l9999.exe)

 Test job not archived.
 1\1\GINC-KADET27\SP\UHF\6-31G(d)\N2(1+,2)\MDOROHUN\25-Mar-2026\0\\#P H
 F/6-31G(d) guess=read GFInput Pop=Full IOP(6/80=1)\\n2 energia jonu w 
 stanie Pi\\1,2\N\N,1,1.0784\\Version=ES64L-G09RevD.01\HF=-108.3723889\
 S2=0.752426\S2-1=0.\S2A=0.750003\RMSD=8.247e-09\Dipole=0.,0.,0.\Quadru
 pole=0.5654333,-0.3455639,-0.2198693,0.,0.,0.\PG=D*H [C*(N1.N1)]\\@


 STEINBACH'S GUIDELINES FOR SYSTEMS PROGRAMMING:
 NEVER TEST FOR AN ERROR CONDITION YOU DON'T KNOW HOW
 TO HANDLE.
 Job cpu time:       0 days  0 hours  0 minutes  0.3 seconds.
 File lengths (MBytes):  RWF=      5 Int=      0 D2E=      0 Chk=      2 Scr=      1
 Normal termination of Gaussian 09 at Wed Mar 25 12:53:57 2026.
