 Entering Gaussian System, Link 0=/opt/g09/g09/g09
 Input=n2p_sgm_hf.inp
 Output=n2p_sgm_hf.log
 Initial command:
 /opt/g09/g09/l1.exe "/tmp/Gau-9840.inp" -scrdir="/tmp/"
 Entering Link 1 = /opt/g09/g09/l1.exe PID=      9842.
  
 Copyright (c) 1988,1990,1992,1993,1995,1998,2003,2009,2013,
            Gaussian, Inc.  All Rights Reserved.
  
 This is part of the Gaussian(R) 09 program.  It is based on
 the Gaussian(R) 03 system (copyright 2003, Gaussian, Inc.),
 the Gaussian(R) 98 system (copyright 1998, Gaussian, Inc.),
 the Gaussian(R) 94 system (copyright 1995, Gaussian, Inc.),
 the Gaussian 92(TM) system (copyright 1992, Gaussian, Inc.),
 the Gaussian 90(TM) system (copyright 1990, Gaussian, Inc.),
 the Gaussian 88(TM) system (copyright 1988, Gaussian, Inc.),
 the Gaussian 86(TM) system (copyright 1986, Carnegie Mellon
 University), and the Gaussian 82(TM) system (copyright 1983,
 Carnegie Mellon University). Gaussian is a federally registered
 trademark of Gaussian, Inc.
  
 This software contains proprietary and confidential information,
 including trade secrets, belonging to Gaussian, Inc.
  
 This software is provided under written license and may be
 used, copied, transmitted, or stored only in accord with that
 written license.
  
 The following legend is applicable only to US Government
 contracts under FAR:
  
                    RESTRICTED RIGHTS LEGEND
  
 Use, reproduction and disclosure by the US Government is
 subject to restrictions as set forth in subparagraphs (a)
 and (c) of the Commercial Computer Software - Restricted
 Rights clause in FAR 52.227-19.
  
 Gaussian, Inc.
 340 Quinnipiac St., Bldg. 40, Wallingford CT 06492
  
  
 ---------------------------------------------------------------
 Warning -- This program may not be used in any manner that
 competes with the business of Gaussian, Inc. or will provide
 assistance to any competitor of Gaussian, Inc.  The licensee
 of this program is prohibited from giving any competitor of
 Gaussian, Inc. access to this program.  By using this program,
 the user acknowledges that Gaussian, Inc. is engaged in the
 business of creating and licensing software in the field of
 computational chemistry and represents and warrants to the
 licensee that it is not a competitor of Gaussian, Inc. and that
 it will not use this program in any manner prohibited above.
 ---------------------------------------------------------------
  

 Cite this work as:
 Gaussian 09, Revision D.01,
 M. J. Frisch, G. W. Trucks, H. B. Schlegel, G. E. Scuseria, 
 M. A. Robb, J. R. Cheeseman, G. Scalmani, V. Barone, B. Mennucci, 
 G. A. Petersson, H. Nakatsuji, M. Caricato, X. Li, H. P. Hratchian, 
 A. F. Izmaylov, J. Bloino, G. Zheng, J. L. Sonnenberg, M. Hada, 
 M. Ehara, K. Toyota, R. Fukuda, J. Hasegawa, M. Ishida, T. Nakajima, 
 Y. Honda, O. Kitao, H. Nakai, T. Vreven, J. A. Montgomery, Jr., 
 J. E. Peralta, F. Ogliaro, M. Bearpark, J. J. Heyd, E. Brothers, 
 K. N. Kudin, V. N. Staroverov, T. Keith, R. Kobayashi, J. Normand, 
 K. Raghavachari, A. Rendell, J. C. Burant, S. S. Iyengar, J. Tomasi, 
 M. Cossi, N. Rega, J. M. Millam, M. Klene, J. E. Knox, J. B. Cross, 
 V. Bakken, C. Adamo, J. Jaramillo, R. Gomperts, R. E. Stratmann, 
 O. Yazyev, A. J. Austin, R. Cammi, C. Pomelli, J. W. Ochterski, 
 R. L. Martin, K. Morokuma, V. G. Zakrzewski, G. A. Voth, 
 P. Salvador, J. J. Dannenberg, S. Dapprich, A. D. Daniels, 
 O. Farkas, J. B. Foresman, J. V. Ortiz, J. Cioslowski, 
 and D. J. Fox, Gaussian, Inc., Wallingford CT, 2013.
 
 ******************************************
 Gaussian 09:  ES64L-G09RevD.01 24-Apr-2013
                25-Mar-2026 
 ******************************************
 %oldchk=n2_hf.chk
 %chk=n2p_sgm_hf.chk
 Copying data from "n2_hf.chk" to current chk file "n2p_sgm_hf.chk".
 --------------------------------------------------------------
 #P HF/6-31G(d) guess=(read,alter) GFInput Pop=Full IOP(6/80=1)
 --------------------------------------------------------------
 1/38=1/1;
 2/12=2,17=6,18=5,40=1/2;
 3/5=1,6=6,7=1,11=9,16=1,24=10,25=1,30=1,116=-2/1,2,3;
 4/5=1,8=1/1;
 5/5=2,38=6/2;
 6/7=3,28=1,80=1/1;
 99/5=1,9=1/99;
 Leave Link    1 at Wed Mar 25 12:54:01 2026, MaxMem=    33554432 cpu:         0.0
 (Enter /opt/g09/g09/l101.exe)
 ------------------------------
 n2 energia jonu w stanie Sigma
 ------------------------------
 Symbolic Z-matrix:
 Charge =  1 Multiplicity = 2
 N
 N                    1     1.0784 
 
 NAtoms=      2 NQM=        2 NQMF=       0 NMMI=      0 NMMIF=      0
                NMic=       0 NMicF=      0.
                    Isotopes and Nuclear Properties:
 (Nuclear quadrupole moments (NQMom) in fm**2, nuclear magnetic moments (NMagM)
  in nuclear magnetons)

  Atom         1           2
 IAtWgt=          14          14
 AtmWgt=  14.0030740  14.0030740
 NucSpn=           2           2
 AtZEff=   0.0000000   0.0000000
 NQMom=    2.0440000   2.0440000
 NMagM=    0.4037610   0.4037610
 AtZNuc=   7.0000000   7.0000000
 Leave Link  101 at Wed Mar 25 12:54:01 2026, MaxMem=    33554432 cpu:         0.0
 (Enter /opt/g09/g09/l202.exe)
                          Input orientation:                          
 ---------------------------------------------------------------------
 Center     Atomic      Atomic             Coordinates (Angstroms)
 Number     Number       Type             X           Y           Z
 ---------------------------------------------------------------------
      1          7           0        0.000000    0.000000    0.000000
      2          7           0        0.000000    0.000000    1.078400
 ---------------------------------------------------------------------
 Stoichiometry    N2(1+,2)
 Framework group  D*H[C*(N.N)]
 Deg. of freedom     1
 Full point group                 D*H     NOp   8
 Largest Abelian subgroup         D2H     NOp   8
 Largest concise Abelian subgroup C2      NOp   2
                         Standard orientation:                         
 ---------------------------------------------------------------------
 Center     Atomic      Atomic             Coordinates (Angstroms)
 Number     Number       Type             X           Y           Z
 ---------------------------------------------------------------------
      1          7           0        0.000000    0.000000    0.539200
      2          7           0        0.000000    0.000000   -0.539200
 ---------------------------------------------------------------------
 Rotational constants (GHZ):      0.0000000     62.0674709     62.0674709
 Leave Link  202 at Wed Mar 25 12:54:01 2026, MaxMem=    33554432 cpu:         0.0
 (Enter /opt/g09/g09/l301.exe)
 Standard basis: 6-31G(d) (6D, 7F)
 Ernie: Thresh=  0.10000D-02 Tol=  0.10000D-05 Strict=F.
 AO basis set in the form of general basis input (Overlap normalization):
      1 0
 S   6 1.00       0.000000000000
      0.4173511460D+04  0.1834772160D-02
      0.6274579110D+03  0.1399462700D-01
      0.1429020930D+03  0.6858655181D-01
      0.4023432930D+02  0.2322408730D+00
      0.1282021290D+02  0.4690699481D+00
      0.4390437010D+01  0.3604551991D+00
 SP   3 1.00       0.000000000000
      0.1162636186D+02 -0.1149611817D+00  0.6757974388D-01
      0.2716279807D+01 -0.1691174786D+00  0.3239072959D+00
      0.7722183966D+00  0.1145851947D+01  0.7408951398D+00
 SP   1 1.00       0.000000000000
      0.2120314975D+00  0.1000000000D+01  0.1000000000D+01
 D   1 1.00       0.000000000000
      0.8000000000D+00  0.1000000000D+01
 ****
      2 0
 S   6 1.00       0.000000000000
      0.4173511460D+04  0.1834772160D-02
      0.6274579110D+03  0.1399462700D-01
      0.1429020930D+03  0.6858655181D-01
      0.4023432930D+02  0.2322408730D+00
      0.1282021290D+02  0.4690699481D+00
      0.4390437010D+01  0.3604551991D+00
 SP   3 1.00       0.000000000000
      0.1162636186D+02 -0.1149611817D+00  0.6757974388D-01
      0.2716279807D+01 -0.1691174786D+00  0.3239072959D+00
      0.7722183966D+00  0.1145851947D+01  0.7408951398D+00
 SP   1 1.00       0.000000000000
      0.2120314975D+00  0.1000000000D+01  0.1000000000D+01
 D   1 1.00       0.000000000000
      0.8000000000D+00  0.1000000000D+01
 ****

 There are     8 symmetry adapted cartesian basis functions of AG  symmetry.
 There are     1 symmetry adapted cartesian basis functions of B1G symmetry.
 There are     3 symmetry adapted cartesian basis functions of B2G symmetry.
 There are     3 symmetry adapted cartesian basis functions of B3G symmetry.
 There are     1 symmetry adapted cartesian basis functions of AU  symmetry.
 There are     8 symmetry adapted cartesian basis functions of B1U symmetry.
 There are     3 symmetry adapted cartesian basis functions of B2U symmetry.
 There are     3 symmetry adapted cartesian basis functions of B3U symmetry.
 There are     8 symmetry adapted basis functions of AG  symmetry.
 There are     1 symmetry adapted basis functions of B1G symmetry.
 There are     3 symmetry adapted basis functions of B2G symmetry.
 There are     3 symmetry adapted basis functions of B3G symmetry.
 There are     1 symmetry adapted basis functions of AU  symmetry.
 There are     8 symmetry adapted basis functions of B1U symmetry.
 There are     3 symmetry adapted basis functions of B2U symmetry.
 There are     3 symmetry adapted basis functions of B3U symmetry.
    30 basis functions,    56 primitive gaussians,    30 cartesian basis functions
     7 alpha electrons        6 beta electrons
       nuclear repulsion energy        24.0445875565 Hartrees.
 IExCor=    0 DFT=F Ex=HF Corr=None ExCW=0 ScaHFX=  1.000000
 ScaDFX=  1.000000  1.000000  1.000000  1.000000 ScalE2=  1.000000  1.000000
 IRadAn=      0 IRanWt=     -1 IRanGd=            0 ICorTp=0 IEmpDi=  4
 NAtoms=    2 NActive=    2 NUniq=    1 SFac= 4.00D+00 NAtFMM=   60 NAOKFM=F Big=F
 Integral buffers will be    131072 words long.
 Raffenetti 2 integral format.
 Two-electron integral symmetry is turned on.
 Leave Link  301 at Wed Mar 25 12:54:01 2026, MaxMem=    33554432 cpu:         0.0
 (Enter /opt/g09/g09/l302.exe)
 NPDir=0 NMtPBC=     1 NCelOv=     1 NCel=       1 NClECP=     1 NCelD=      1
         NCelK=      1 NCelE2=     1 NClLst=     1 CellRange=     0.0.
 One-electron integrals computed using PRISM.
 One-electron integral symmetry used in STVInt
 NBasis=    30 RedAO= T EigKep=  5.64D-03  NBF=     8     1     3     3     1     8     3     3
 NBsUse=    30 1.00D-06 EigRej= -1.00D+00 NBFU=     8     1     3     3     1     8     3     3
 Leave Link  302 at Wed Mar 25 12:54:01 2026, MaxMem=    33554432 cpu:         0.1
 (Enter /opt/g09/g09/l303.exe)
 DipDrv:  MaxL=1.
 Leave Link  303 at Wed Mar 25 12:54:01 2026, MaxMem=    33554432 cpu:         0.0
 (Enter /opt/g09/g09/l401.exe)
 Initial guess from the checkpoint file:  "n2p_sgm_hf.chk"
 B after Tr=     0.000000    0.000000    0.000000
         Rot=    1.000000    0.000000    0.000000    0.000000 Ang=   0.00 deg.
 Guess basis will be translated and rotated to current coordinates.
 JPrj=2 DoOrth=T DoCkMO=T.
 No Alpha orbitals switched.
 Pairs of Beta  orbitals switched:
    5   7
 Initial guess orbital symmetries:
 Alpha Orbitals:
       Occupied  (SGG) (SGU) (SGG) (SGU) (SGG) (PIU) (PIU)
       Virtual   (PIG) (PIG) (SGU) (SGG) (PIU) (PIU) (SGG) (PIG)
                 (PIG) (SGU) (SGU) (DLTG) (DLTG) (PIU) (PIU) (DLTU)
                 (DLTU) (SGG) (PIG) (PIG) (SGU) (SGG) (SGU)
 Beta  Orbitals:
       Occupied  (SGG) (SGU) (SGG) (SGU) (PIU) (PIU)
       Virtual   (SGG) (PIG) (PIG) (SGU) (SGG) (PIU) (PIU) (SGG)
                 (PIG) (PIG) (SGU) (SGU) (DLTG) (DLTG) (PIU) (PIU)
                 (DLTU) (DLTU) (SGG) (PIG) (PIG) (SGU) (SGG) (SGU)
 The electronic state of the initial guess is 2-SGG.
 Initial guess <Sx>= 0.0000 <Sy>= 0.0000 <Sz>= 0.5000 <S**2>= 0.7500 S= 0.5000
 Leave Link  401 at Wed Mar 25 12:54:01 2026, MaxMem=    33554432 cpu:         0.0
 (Enter /opt/g09/g09/l502.exe)
 UHF open shell SCF:
 Using DIIS extrapolation, IDIIS=  1040.
 Integral symmetry usage will be decided dynamically.
 Keep R1 and R2 ints in memory in symmetry-blocked form, NReq=959811.
 IVT=       21766 IEndB=       21766 NGot=    33554432 MDV=    33499153
 LenX=    33499153 LenY=    33497812
 Requested convergence on RMS density matrix=1.00D-08 within 128 cycles.
 Requested convergence on MAX density matrix=1.00D-06.
 Requested convergence on             energy=1.00D-06.
 No special actions if energy rises.
 FoFCou: FMM=F IPFlag=           0 FMFlag=           0 FMFlg1=           0
         NFxFlg=           0 DoJE=F BraDBF=F KetDBF=F FulRan=T
         wScrn=  0.000000 ICntrl=     600 IOpCl=  0 I1Cent=           0 NGrid=           0
         NMat0=    1 NMatS0=    465 NMatT0=    0 NMatD0=    1 NMtDS0=    0 NMtDT0=    0
 Petite list used in FoFCou.

 Cycle   1  Pass 1  IDiag  1:
 E= -108.312366353295    
 DIIS: error= 5.20D-02 at cycle   1 NSaved=   1.
 NSaved= 1 IEnMin= 1 EnMin= -108.312366353295     IErMin= 1 ErrMin= 5.20D-02
 ErrMax= 5.20D-02  0.00D+00 EMaxC= 1.00D-01 BMatC= 1.80D-01 BMatP= 1.80D-01
 IDIUse=3 WtCom= 4.80D-01 WtEn= 5.20D-01
 Coeff-Com:  0.100D+01
 Coeff-En:   0.100D+01
 Coeff:      0.100D+01
 Gap=     0.829 Goal=   None    Shift=    0.000
 Gap=     0.469 Goal=   None    Shift=    0.000
 GapD=    0.469 DampG=2.000 DampE=0.500 DampFc=1.0000 IDamp=-1.
 RMSDP=9.55D-03 MaxDP=9.45D-02              OVMax= 7.05D-02

 Cycle   2  Pass 1  IDiag  1:
 E= -108.362075522173     Delta-E=       -0.049709168878 Rises=F Damp=F
 DIIS: error= 1.33D-02 at cycle   2 NSaved=   2.
 NSaved= 2 IEnMin= 2 EnMin= -108.362075522173     IErMin= 2 ErrMin= 1.33D-02
 ErrMax= 1.33D-02  0.00D+00 EMaxC= 1.00D-01 BMatC= 1.09D-02 BMatP= 1.80D-01
 IDIUse=3 WtCom= 8.67D-01 WtEn= 1.33D-01
 Coeff-Com:  0.887D-01 0.911D+00
 Coeff-En:   0.000D+00 0.100D+01
 Coeff:      0.769D-01 0.923D+00
 Gap=     0.816 Goal=   None    Shift=    0.000
 Gap=     0.497 Goal=   None    Shift=    0.000
 RMSDP=2.22D-03 MaxDP=3.88D-02 DE=-4.97D-02 OVMax= 1.90D-02

 Cycle   3  Pass 1  IDiag  1:
 E= -108.364871529229     Delta-E=       -0.002796007056 Rises=F Damp=F
 DIIS: error= 5.90D-03 at cycle   3 NSaved=   3.
 NSaved= 3 IEnMin= 3 EnMin= -108.364871529229     IErMin= 3 ErrMin= 5.90D-03
 ErrMax= 5.90D-03  0.00D+00 EMaxC= 1.00D-01 BMatC= 9.67D-04 BMatP= 1.09D-02
 IDIUse=3 WtCom= 9.41D-01 WtEn= 5.90D-02
 Coeff-Com: -0.602D-01-0.226D+00 0.129D+01
 Coeff-En:   0.000D+00 0.000D+00 0.100D+01
 Coeff:     -0.566D-01-0.212D+00 0.127D+01
 Gap=     0.816 Goal=   None    Shift=    0.000
 Gap=     0.507 Goal=   None    Shift=    0.000
 RMSDP=1.41D-03 MaxDP=2.40D-02 DE=-2.80D-03 OVMax= 1.08D-02

 Cycle   4  Pass 1  IDiag  1:
 E= -108.365270530915     Delta-E=       -0.000399001686 Rises=F Damp=F
 DIIS: error= 7.89D-04 at cycle   4 NSaved=   4.
 NSaved= 4 IEnMin= 4 EnMin= -108.365270530915     IErMin= 4 ErrMin= 7.89D-04
 ErrMax= 7.89D-04  0.00D+00 EMaxC= 1.00D-01 BMatC= 2.62D-05 BMatP= 9.67D-04
 IDIUse=3 WtCom= 9.92D-01 WtEn= 7.89D-03
 Coeff-Com:  0.348D-02 0.105D-01-0.221D+00 0.121D+01
 Coeff-En:   0.000D+00 0.000D+00 0.000D+00 0.100D+01
 Coeff:      0.345D-02 0.104D-01-0.220D+00 0.121D+01
 Gap=     0.816 Goal=   None    Shift=    0.000
 Gap=     0.509 Goal=   None    Shift=    0.000
 RMSDP=2.45D-04 MaxDP=3.96D-03 DE=-3.99D-04 OVMax= 1.73D-03

 Cycle   5  Pass 1  IDiag  1:
 E= -108.365281714224     Delta-E=       -0.000011183308 Rises=F Damp=F
 DIIS: error= 9.80D-05 at cycle   5 NSaved=   5.
 NSaved= 5 IEnMin= 5 EnMin= -108.365281714224     IErMin= 5 ErrMin= 9.80D-05
 ErrMax= 9.80D-05  0.00D+00 EMaxC= 1.00D-01 BMatC= 4.32D-07 BMatP= 2.62D-05
 IDIUse=1 WtCom= 1.00D+00 WtEn= 0.00D+00
 Coeff-Com:  0.399D-03 0.370D-02 0.120D-01-0.207D+00 0.119D+01
 Coeff:      0.399D-03 0.370D-02 0.120D-01-0.207D+00 0.119D+01
 Gap=     0.816 Goal=   None    Shift=    0.000
 Gap=     0.509 Goal=   None    Shift=    0.000
 RMSDP=1.92D-05 MaxDP=2.70D-04 DE=-1.12D-05 OVMax= 2.16D-04

 Cycle   6  Pass 1  IDiag  1:
 E= -108.365281884546     Delta-E=       -0.000000170322 Rises=F Damp=F
 DIIS: error= 3.07D-05 at cycle   6 NSaved=   6.
 NSaved= 6 IEnMin= 6 EnMin= -108.365281884546     IErMin= 6 ErrMin= 3.07D-05
 ErrMax= 3.07D-05  0.00D+00 EMaxC= 1.00D-01 BMatC= 2.15D-08 BMatP= 4.32D-07
 IDIUse=1 WtCom= 1.00D+00 WtEn= 0.00D+00
 Coeff-Com: -0.133D-03-0.131D-02-0.718D-03 0.495D-01-0.447D+00 0.140D+01
 Coeff:     -0.133D-03-0.131D-02-0.718D-03 0.495D-01-0.447D+00 0.140D+01
 Gap=     0.816 Goal=   None    Shift=    0.000
 Gap=     0.509 Goal=   None    Shift=    0.000
 RMSDP=2.59D-06 MaxDP=2.23D-05 DE=-1.70D-07 OVMax= 7.08D-05

 Cycle   7  Pass 1  IDiag  1:
 E= -108.365281895304     Delta-E=       -0.000000010758 Rises=F Damp=F
 DIIS: error= 6.09D-06 at cycle   7 NSaved=   7.
 NSaved= 7 IEnMin= 7 EnMin= -108.365281895304     IErMin= 7 ErrMin= 6.09D-06
 ErrMax= 6.09D-06  0.00D+00 EMaxC= 1.00D-01 BMatC= 6.87D-10 BMatP= 2.15D-08
 IDIUse=1 WtCom= 1.00D+00 WtEn= 0.00D+00
 Coeff-Com:  0.354D-04 0.383D-03-0.322D-03-0.102D-01 0.120D+00-0.510D+00
 Coeff-Com:  0.140D+01
 Coeff:      0.354D-04 0.383D-03-0.322D-03-0.102D-01 0.120D+00-0.510D+00
 Coeff:      0.140D+01
 Gap=     0.816 Goal=   None    Shift=    0.000
 Gap=     0.509 Goal=   None    Shift=    0.000
 RMSDP=8.65D-07 MaxDP=1.31D-05 DE=-1.08D-08 OVMax= 1.56D-05

 Cycle   8  Pass 1  IDiag  1:
 E= -108.365281895668     Delta-E=       -0.000000000364 Rises=F Damp=F
 DIIS: error= 6.14D-07 at cycle   8 NSaved=   8.
 NSaved= 8 IEnMin= 8 EnMin= -108.365281895668     IErMin= 8 ErrMin= 6.14D-07
 ErrMax= 6.14D-07  0.00D+00 EMaxC= 1.00D-01 BMatC= 8.21D-12 BMatP= 6.87D-10
 IDIUse=1 WtCom= 1.00D+00 WtEn= 0.00D+00
 Coeff-Com: -0.471D-05-0.534D-04 0.787D-04 0.118D-02-0.168D-01 0.815D-01
 Coeff-Com: -0.315D+00 0.125D+01
 Coeff:     -0.471D-05-0.534D-04 0.787D-04 0.118D-02-0.168D-01 0.815D-01
 Coeff:     -0.315D+00 0.125D+01
 Gap=     0.816 Goal=   None    Shift=    0.000
 Gap=     0.509 Goal=   None    Shift=    0.000
 RMSDP=9.61D-08 MaxDP=1.54D-06 DE=-3.64D-10 OVMax= 1.56D-06

 Cycle   9  Pass 1  IDiag  1:
 E= -108.365281895672     Delta-E=       -0.000000000004 Rises=F Damp=F
 DIIS: error= 5.10D-08 at cycle   9 NSaved=   9.
 NSaved= 9 IEnMin= 9 EnMin= -108.365281895672     IErMin= 9 ErrMin= 5.10D-08
 ErrMax= 5.10D-08  0.00D+00 EMaxC= 1.00D-01 BMatC= 1.62D-13 BMatP= 8.21D-12
 IDIUse=1 WtCom= 1.00D+00 WtEn= 0.00D+00
 Coeff-Com:  0.163D-05 0.191D-04-0.315D-04-0.378D-03 0.574D-02-0.287D-01
 Coeff-Com:  0.116D+00-0.505D+00 0.141D+01
 Coeff:      0.163D-05 0.191D-04-0.315D-04-0.378D-03 0.574D-02-0.287D-01
 Coeff:      0.116D+00-0.505D+00 0.141D+01
 Gap=     0.816 Goal=   None    Shift=    0.000
 Gap=     0.509 Goal=   None    Shift=    0.000
 RMSDP=1.62D-08 MaxDP=2.59D-07 DE=-3.89D-12 OVMax= 1.04D-07

 Cycle  10  Pass 1  IDiag  1:
 E= -108.365281895673     Delta-E=        0.000000000000 Rises=F Damp=F
 DIIS: error= 6.77D-09 at cycle  10 NSaved=  10.
 NSaved=10 IEnMin=10 EnMin= -108.365281895673     IErMin=10 ErrMin= 6.77D-09
 ErrMax= 6.77D-09  0.00D+00 EMaxC= 1.00D-01 BMatC= 4.36D-15 BMatP= 1.62D-13
 IDIUse=1 WtCom= 1.00D+00 WtEn= 0.00D+00
 Coeff-Com: -0.360D-06-0.448D-05 0.797D-05 0.795D-04-0.130D-02 0.665D-02
 Coeff-Com: -0.279D-01 0.127D+00-0.468D+00 0.136D+01
 Coeff:     -0.360D-06-0.448D-05 0.797D-05 0.795D-04-0.130D-02 0.665D-02
 Coeff:     -0.279D-01 0.127D+00-0.468D+00 0.136D+01
 Gap=     0.816 Goal=   None    Shift=    0.000
 Gap=     0.509 Goal=   None    Shift=    0.000
 RMSDP=4.37D-09 MaxDP=6.38D-08 DE=-1.71D-13 OVMax= 2.00D-08

 SCF Done:  E(UHF) =  -108.365281896     A.U. after   10 cycles
            NFock= 10  Conv=0.44D-08     -V/T= 2.0032
 <Sx>= 0.0000 <Sy>= 0.0000 <Sz>= 0.5000 <S**2>= 0.7647 S= 0.5073
 <L.S>= 0.000000000000E+00
 KE= 1.080208377820D+02 PE=-2.965677038860D+02 EE= 5.613699665191D+01
 Annihilation of the first spin contaminant:
 S**2 before annihilation     0.7647,   after     0.7500
 Leave Link  502 at Wed Mar 25 12:54:02 2026, MaxMem=    33554432 cpu:         0.0
 (Enter /opt/g09/g09/l601.exe)
 Copying SCF densities to generalized density rwf, IOpCl= 1 IROHF=0.

 **********************************************************************

            Population analysis using the SCF density.

 **********************************************************************

 Orbital symmetries:
 Alpha Orbitals:
       Occupied  (SGG) (SGU) (SGG) (SGU) (SGG) (PIU) (PIU)
       Virtual   (PIG) (PIG) (SGU) (SGG) (SGG) (PIU) (PIU) (SGU)
                 (PIG) (PIG) (SGU) (DLTG) (DLTG) (PIU) (PIU) (DLTU)
                 (DLTU) (SGG) (PIG) (PIG) (SGU) (SGG) (SGU)
 Beta  Orbitals:
       Occupied  (SGG) (SGU) (SGG) (PIU) (PIU) (SGU)
       Virtual   (SGG) (PIG) (PIG) (SGU) (SGG) (PIU) (PIU) (SGG)
                 (PIG) (PIG) (SGU) (SGU) (DLTG) (DLTG) (PIU) (PIU)
                 (DLTU) (DLTU) (SGG) (PIG) (PIG) (SGU) (SGG) (SGU)
 The electronic state is 2-SGG.
 Alpha  occ. eigenvalues --  -16.20464 -16.20059  -1.95853  -1.26925  -1.14962
 Alpha  occ. eigenvalues --   -1.05737  -1.05737
 Alpha virt. eigenvalues --   -0.24136  -0.24136   0.25157   0.41037   0.45024
 Alpha virt. eigenvalues --    0.46084   0.46084   0.63195   0.63684   0.63684
 Alpha virt. eigenvalues --    1.13827   1.29692   1.29692   1.41351   1.41351
 Alpha virt. eigenvalues --    1.85288   1.85288   2.29726   2.51178   2.51178
 Alpha virt. eigenvalues --    2.79431   3.23690   3.56126
  Beta  occ. eigenvalues --  -16.18437 -16.18164  -1.89200  -1.03984  -1.03984
  Beta  occ. eigenvalues --   -1.03782
  Beta virt. eigenvalues --   -0.52836  -0.20846  -0.20846   0.26531   0.44267
  Beta virt. eigenvalues --    0.47072   0.47072   0.52508   0.64796   0.64796
  Beta virt. eigenvalues --    0.76460   1.14668   1.30335   1.30335   1.47936
  Beta virt. eigenvalues --    1.47936   1.86360   1.86360   2.36332   2.55812
  Beta virt. eigenvalues --    2.55812   2.86857   3.26135   3.59982
     Alpha Molecular Orbital Coefficients:
                           1         2         3         4         5
                       (SGG)--O  (SGU)--O  (SGG)--O  (SGU)--O  (SGG)--O
     Eigenvalues --   -16.20464 -16.20059  -1.95853  -1.26925  -1.14962
   1 1   N  1S          0.70322   0.70388  -0.16148  -0.14627  -0.05985
   2        2S          0.01723   0.01760   0.36010   0.37516   0.16027
   3        2PX         0.00000   0.00000   0.00000   0.00000   0.00000
   4        2PY         0.00000   0.00000   0.00000   0.00000   0.00000
   5        2PZ        -0.00111  -0.00178  -0.22994   0.26024   0.49278
   6        3S          0.00037  -0.00021   0.15708   0.47097   0.26516
   7        3PX         0.00000   0.00000   0.00000   0.00000   0.00000
   8        3PY         0.00000   0.00000   0.00000   0.00000   0.00000
   9        3PZ         0.00018   0.00001  -0.02752   0.03116   0.14913
  10        4XX        -0.00295  -0.00286  -0.01515  -0.00447   0.00866
  11        4YY        -0.00295  -0.00286  -0.01515  -0.00447   0.00866
  12        4ZZ        -0.00191  -0.00095   0.03686   0.00265  -0.01149
  13        4XY         0.00000   0.00000   0.00000   0.00000   0.00000
  14        4XZ         0.00000   0.00000   0.00000   0.00000   0.00000
  15        4YZ         0.00000   0.00000   0.00000   0.00000   0.00000
  16 2   N  1S          0.70322  -0.70388  -0.16148   0.14627  -0.05985
  17        2S          0.01723  -0.01760   0.36010  -0.37516   0.16027
  18        2PX         0.00000   0.00000   0.00000   0.00000   0.00000
  19        2PY         0.00000   0.00000   0.00000   0.00000   0.00000
  20        2PZ         0.00111  -0.00178   0.22994   0.26024  -0.49278
  21        3S          0.00037   0.00021   0.15708  -0.47097   0.26516
  22        3PX         0.00000   0.00000   0.00000   0.00000   0.00000
  23        3PY         0.00000   0.00000   0.00000   0.00000   0.00000
  24        3PZ        -0.00018   0.00001   0.02752   0.03116  -0.14913
  25        4XX        -0.00295   0.00286  -0.01515   0.00447   0.00866
  26        4YY        -0.00295   0.00286  -0.01515   0.00447   0.00866
  27        4ZZ        -0.00191   0.00095   0.03686  -0.00265  -0.01149
  28        4XY         0.00000   0.00000   0.00000   0.00000   0.00000
  29        4XZ         0.00000   0.00000   0.00000   0.00000   0.00000
  30        4YZ         0.00000   0.00000   0.00000   0.00000   0.00000
                           6         7         8         9        10
                       (PIU)--O  (PIU)--O  (PIG)--V  (PIG)--V  (SGU)--V
     Eigenvalues --    -1.05737  -1.05737  -0.24136  -0.24136   0.25157
   1 1   N  1S          0.00000   0.00000   0.00000   0.00000  -0.09142
   2        2S          0.00000   0.00000   0.00000   0.00000   0.24245
   3        2PX         0.47595   0.00000   0.00000   0.49602   0.00000
   4        2PY         0.00000   0.47595   0.49602   0.00000   0.00000
   5        2PZ         0.00000   0.00000   0.00000   0.00000  -0.07775
   6        3S          0.00000   0.00000   0.00000   0.00000   4.13090
   7        3PX         0.20548   0.00000   0.00000   0.57601   0.00000
   8        3PY         0.00000   0.20548   0.57601   0.00000   0.00000
   9        3PZ         0.00000   0.00000   0.00000   0.00000  -2.70104
  10        4XX         0.00000   0.00000   0.00000   0.00000   0.00308
  11        4YY         0.00000   0.00000   0.00000   0.00000   0.00308
  12        4ZZ         0.00000   0.00000   0.00000   0.00000   0.04576
  13        4XY         0.00000   0.00000   0.00000   0.00000   0.00000
  14        4XZ        -0.04732   0.00000   0.00000   0.03271   0.00000
  15        4YZ         0.00000  -0.04732   0.03271   0.00000   0.00000
  16 2   N  1S          0.00000   0.00000   0.00000   0.00000   0.09142
  17        2S          0.00000   0.00000   0.00000   0.00000  -0.24245
  18        2PX         0.47595   0.00000   0.00000  -0.49602   0.00000
  19        2PY         0.00000   0.47595  -0.49602   0.00000   0.00000
  20        2PZ         0.00000   0.00000   0.00000   0.00000  -0.07775
  21        3S          0.00000   0.00000   0.00000   0.00000  -4.13090
  22        3PX         0.20548   0.00000   0.00000  -0.57601   0.00000
  23        3PY         0.00000   0.20548  -0.57601   0.00000   0.00000
  24        3PZ         0.00000   0.00000   0.00000   0.00000  -2.70104
  25        4XX         0.00000   0.00000   0.00000   0.00000  -0.00308
  26        4YY         0.00000   0.00000   0.00000   0.00000  -0.00308
  27        4ZZ         0.00000   0.00000   0.00000   0.00000  -0.04576
  28        4XY         0.00000   0.00000   0.00000   0.00000   0.00000
  29        4XZ         0.04732   0.00000   0.00000   0.03271   0.00000
  30        4YZ         0.00000   0.04732   0.03271   0.00000   0.00000
                          11        12        13        14        15
                       (SGG)--V  (SGG)--V  (PIU)--V  (PIU)--V  (SGU)--V
     Eigenvalues --     0.41037   0.45024   0.46084   0.46084   0.63195
   1 1   N  1S          0.02967   0.00541   0.00000   0.00000  -0.08400
   2        2S          0.48872  -0.67547   0.00000   0.00000  -0.30074
   3        2PX         0.00000   0.00000  -0.60012   0.00000   0.00000
   4        2PY         0.00000   0.00000   0.00000  -0.60012   0.00000
   5        2PZ        -0.31241  -0.37217   0.00000   0.00000  -0.66657
   6        3S         -0.37321   1.03452   0.00000   0.00000   1.97499
   7        3PX         0.00000   0.00000   0.63297   0.00000   0.00000
   8        3PY         0.00000   0.00000   0.00000   0.63297   0.00000
   9        3PZ         0.87376   0.46372   0.00000   0.00000  -0.32789
  10        4XX         0.05257  -0.13706   0.00000   0.00000  -0.00847
  11        4YY         0.05257  -0.13706   0.00000   0.00000  -0.00847
  12        4ZZ         0.17406  -0.17125   0.00000   0.00000  -0.34900
  13        4XY         0.00000   0.00000   0.00000   0.00000   0.00000
  14        4XZ         0.00000   0.00000   0.09727   0.00000   0.00000
  15        4YZ         0.00000   0.00000   0.00000   0.09727   0.00000
  16 2   N  1S          0.02967   0.00541   0.00000   0.00000   0.08400
  17        2S          0.48872  -0.67547   0.00000   0.00000   0.30074
  18        2PX         0.00000   0.00000  -0.60012   0.00000   0.00000
  19        2PY         0.00000   0.00000   0.00000  -0.60012   0.00000
  20        2PZ         0.31241   0.37217   0.00000   0.00000  -0.66657
  21        3S         -0.37321   1.03452   0.00000   0.00000  -1.97499
  22        3PX         0.00000   0.00000   0.63297   0.00000   0.00000
  23        3PY         0.00000   0.00000   0.00000   0.63297   0.00000
  24        3PZ        -0.87376  -0.46372   0.00000   0.00000  -0.32789
  25        4XX         0.05257  -0.13706   0.00000   0.00000   0.00847
  26        4YY         0.05257  -0.13706   0.00000   0.00000   0.00847
  27        4ZZ         0.17406  -0.17125   0.00000   0.00000   0.34900
  28        4XY         0.00000   0.00000   0.00000   0.00000   0.00000
  29        4XZ         0.00000   0.00000  -0.09727   0.00000   0.00000
  30        4YZ         0.00000   0.00000   0.00000  -0.09727   0.00000
                          16        17        18        19        20
                       (PIG)--V  (PIG)--V  (SGU)--V  (DLTG)--  (DLTG)--
     Eigenvalues --     0.63684   0.63684   1.13827   1.29692   1.29692
   1 1   N  1S          0.00000   0.00000  -0.01929   0.00000   0.00000
   2        2S          0.00000   0.00000  -1.25020   0.00000   0.00000
   3        2PX        -0.68667   0.00000   0.00000   0.00000   0.00000
   4        2PY         0.00000  -0.68667   0.00000   0.00000   0.00000
   5        2PZ         0.00000   0.00000   0.29816   0.00000   0.00000
   6        3S          0.00000   0.00000   7.30052   0.00000   0.00000
   7        3PX         1.24046   0.00000   0.00000   0.00000   0.00000
   8        3PY         0.00000   1.24046   0.00000   0.00000   0.00000
   9        3PZ         0.00000   0.00000  -3.27948   0.00000   0.00000
  10        4XX         0.00000   0.00000  -0.24833   0.00000   0.56138
  11        4YY         0.00000   0.00000  -0.24833   0.00000  -0.56138
  12        4ZZ         0.00000   0.00000   0.07740   0.00000   0.00000
  13        4XY         0.00000   0.00000   0.00000   0.64823   0.00000
  14        4XZ        -0.06801   0.00000   0.00000   0.00000   0.00000
  15        4YZ         0.00000  -0.06801   0.00000   0.00000   0.00000
  16 2   N  1S          0.00000   0.00000   0.01929   0.00000   0.00000
  17        2S          0.00000   0.00000   1.25020   0.00000   0.00000
  18        2PX         0.68667   0.00000   0.00000   0.00000   0.00000
  19        2PY         0.00000   0.68667   0.00000   0.00000   0.00000
  20        2PZ         0.00000   0.00000   0.29816   0.00000   0.00000
  21        3S          0.00000   0.00000  -7.30052   0.00000   0.00000
  22        3PX        -1.24046   0.00000   0.00000   0.00000   0.00000
  23        3PY         0.00000  -1.24046   0.00000   0.00000   0.00000
  24        3PZ         0.00000   0.00000  -3.27948   0.00000   0.00000
  25        4XX         0.00000   0.00000   0.24833   0.00000   0.56138
  26        4YY         0.00000   0.00000   0.24833   0.00000  -0.56138
  27        4ZZ         0.00000   0.00000  -0.07740   0.00000   0.00000
  28        4XY         0.00000   0.00000   0.00000   0.64823   0.00000
  29        4XZ        -0.06801   0.00000   0.00000   0.00000   0.00000
  30        4YZ         0.00000  -0.06801   0.00000   0.00000   0.00000
                          21        22        23        24        25
                       (PIU)--V  (PIU)--V  (DLTU)--  (DLTU)--  (SGG)--V
     Eigenvalues --     1.41351   1.41351   1.85288   1.85288   2.29726
   1 1   N  1S          0.00000   0.00000   0.00000   0.00000   0.13533
   2        2S          0.00000   0.00000   0.00000   0.00000   0.37394
   3        2PX         0.29460   0.00000   0.00000   0.00000   0.00000
   4        2PY         0.00000   0.29460   0.00000   0.00000   0.00000
   5        2PZ         0.00000   0.00000   0.00000   0.00000  -0.32506
   6        3S          0.00000   0.00000   0.00000   0.00000  -0.55449
   7        3PX        -0.07655   0.00000   0.00000   0.00000   0.00000
   8        3PY         0.00000  -0.07655   0.00000   0.00000   0.00000
   9        3PZ         0.00000   0.00000   0.00000   0.00000   0.59876
  10        4XX         0.00000   0.00000   0.00000   0.68038   0.68402
  11        4YY         0.00000   0.00000   0.00000  -0.68038   0.68402
  12        4ZZ         0.00000   0.00000   0.00000   0.00000  -0.56331
  13        4XY         0.00000   0.00000   0.78563   0.00000   0.00000
  14        4XZ         0.59701   0.00000   0.00000   0.00000   0.00000
  15        4YZ         0.00000   0.59701   0.00000   0.00000   0.00000
  16 2   N  1S          0.00000   0.00000   0.00000   0.00000   0.13533
  17        2S          0.00000   0.00000   0.00000   0.00000   0.37394
  18        2PX         0.29460   0.00000   0.00000   0.00000   0.00000
  19        2PY         0.00000   0.29460   0.00000   0.00000   0.00000
  20        2PZ         0.00000   0.00000   0.00000   0.00000   0.32506
  21        3S          0.00000   0.00000   0.00000   0.00000  -0.55449
  22        3PX        -0.07655   0.00000   0.00000   0.00000   0.00000
  23        3PY         0.00000  -0.07655   0.00000   0.00000   0.00000
  24        3PZ         0.00000   0.00000   0.00000   0.00000  -0.59876
  25        4XX         0.00000   0.00000   0.00000  -0.68038   0.68402
  26        4YY         0.00000   0.00000   0.00000   0.68038   0.68402
  27        4ZZ         0.00000   0.00000   0.00000   0.00000  -0.56331
  28        4XY         0.00000   0.00000  -0.78563   0.00000   0.00000
  29        4XZ        -0.59701   0.00000   0.00000   0.00000   0.00000
  30        4YZ         0.00000  -0.59701   0.00000   0.00000   0.00000
                          26        27        28        29        30
                       (PIG)--V  (PIG)--V  (SGU)--V  (SGG)--V  (SGU)--V
     Eigenvalues --     2.51178   2.51178   2.79431   3.23690   3.56126
   1 1   N  1S          0.00000   0.00000   0.01665  -0.23452  -0.35664
   2        2S          0.00000   0.00000   0.57482   1.30895   0.51137
   3        2PX        -0.29104   0.00000   0.00000   0.00000   0.00000
   4        2PY         0.00000  -0.29104   0.00000   0.00000   0.00000
   5        2PZ         0.00000   0.00000  -1.19578  -0.14366   0.41897
   6        3S          0.00000   0.00000   3.17384   0.80485   4.23368
   7        3PX        -0.49811   0.00000   0.00000   0.00000   0.00000
   8        3PY         0.00000  -0.49811   0.00000   0.00000   0.00000
   9        3PZ         0.00000   0.00000  -1.67210   0.07327  -1.33611
  10        4XX         0.00000   0.00000  -0.48491  -0.77999  -1.09229
  11        4YY         0.00000   0.00000  -0.48491  -0.77999  -1.09229
  12        4ZZ         0.00000   0.00000   1.34979  -1.12993  -1.17780
  13        4XY         0.00000   0.00000   0.00000   0.00000   0.00000
  14        4XZ         1.13706   0.00000   0.00000   0.00000   0.00000
  15        4YZ         0.00000   1.13706   0.00000   0.00000   0.00000
  16 2   N  1S          0.00000   0.00000  -0.01665  -0.23452   0.35664
  17        2S          0.00000   0.00000  -0.57482   1.30895  -0.51137
  18        2PX         0.29104   0.00000   0.00000   0.00000   0.00000
  19        2PY         0.00000   0.29104   0.00000   0.00000   0.00000
  20        2PZ         0.00000   0.00000  -1.19578   0.14366   0.41897
  21        3S          0.00000   0.00000  -3.17384   0.80485  -4.23368
  22        3PX         0.49811   0.00000   0.00000   0.00000   0.00000
  23        3PY         0.00000   0.49811   0.00000   0.00000   0.00000
  24        3PZ         0.00000   0.00000  -1.67210  -0.07327  -1.33611
  25        4XX         0.00000   0.00000   0.48491  -0.77999   1.09229
  26        4YY         0.00000   0.00000   0.48491  -0.77999   1.09229
  27        4ZZ         0.00000   0.00000  -1.34979  -1.12993   1.17780
  28        4XY         0.00000   0.00000   0.00000   0.00000   0.00000
  29        4XZ         1.13706   0.00000   0.00000   0.00000   0.00000
  30        4YZ         0.00000   1.13706   0.00000   0.00000   0.00000
     Beta Molecular Orbital Coefficients:
                           1         2         3         4         5
                       (SGG)--O  (SGU)--O  (SGG)--O  (PIU)--O  (PIU)--O
     Eigenvalues --   -16.18437 -16.18164  -1.89200  -1.03984  -1.03984
   1 1   N  1S          0.70368   0.70426  -0.16177   0.00000   0.00000
   2        2S          0.01585   0.01597   0.36055   0.00000   0.00000
   3        2PX         0.00000   0.00000   0.00000   0.00000   0.46921
   4        2PY         0.00000   0.00000   0.00000   0.46921   0.00000
   5        2PZ        -0.00116  -0.00198  -0.20799   0.00000   0.00000
   6        3S         -0.00005  -0.00328   0.17183   0.00000   0.00000
   7        3PX         0.00000   0.00000   0.00000   0.00000   0.20907
   8        3PY         0.00000   0.00000   0.00000   0.20907   0.00000
   9        3PZ         0.00033   0.00127  -0.03237   0.00000   0.00000
  10        4XX        -0.00211  -0.00200  -0.00766   0.00000   0.00000
  11        4YY        -0.00211  -0.00200  -0.00766   0.00000   0.00000
  12        4ZZ        -0.00225  -0.00121   0.02214   0.00000   0.00000
  13        4XY         0.00000   0.00000   0.00000   0.00000   0.00000
  14        4XZ         0.00000   0.00000   0.00000   0.00000  -0.05571
  15        4YZ         0.00000   0.00000   0.00000  -0.05571   0.00000
  16 2   N  1S          0.70368  -0.70426  -0.16177   0.00000   0.00000
  17        2S          0.01585  -0.01597   0.36055   0.00000   0.00000
  18        2PX         0.00000   0.00000   0.00000   0.00000   0.46921
  19        2PY         0.00000   0.00000   0.00000   0.46921   0.00000
  20        2PZ         0.00116  -0.00198   0.20799   0.00000   0.00000
  21        3S         -0.00005   0.00328   0.17183   0.00000   0.00000
  22        3PX         0.00000   0.00000   0.00000   0.00000   0.20907
  23        3PY         0.00000   0.00000   0.00000   0.20907   0.00000
  24        3PZ        -0.00033   0.00127   0.03237   0.00000   0.00000
  25        4XX        -0.00211   0.00200  -0.00766   0.00000   0.00000
  26        4YY        -0.00211   0.00200  -0.00766   0.00000   0.00000
  27        4ZZ        -0.00225   0.00121   0.02214   0.00000   0.00000
  28        4XY         0.00000   0.00000   0.00000   0.00000   0.00000
  29        4XZ         0.00000   0.00000   0.00000   0.00000   0.05571
  30        4YZ         0.00000   0.00000   0.00000   0.05571   0.00000
                           6         7         8         9        10
                       (SGU)--O  (SGG)--V  (PIG)--V  (PIG)--V  (SGU)--V
     Eigenvalues --    -1.03782  -0.52836  -0.20846  -0.20846   0.26531
   1 1   N  1S         -0.15365  -0.04877   0.00000   0.00000  -0.08495
   2        2S          0.36903   0.07849   0.00000   0.00000   0.23254
   3        2PX         0.00000   0.00000   0.00000   0.49231   0.00000
   4        2PY         0.00000   0.00000   0.49231   0.00000   0.00000
   5        2PZ         0.17542   0.44129   0.00000   0.00000  -0.08638
   6        3S          0.62726   0.36030   0.00000   0.00000   4.11605
   7        3PX         0.00000   0.00000   0.00000   0.59815   0.00000
   8        3PY         0.00000   0.00000   0.59815   0.00000   0.00000
   9        3PZ        -0.00817   0.23503   0.00000   0.00000  -2.70947
  10        4XX         0.00746   0.00585   0.00000   0.00000   0.00380
  11        4YY         0.00746   0.00585   0.00000   0.00000   0.00380
  12        4ZZ        -0.03016  -0.03362   0.00000   0.00000   0.06019
  13        4XY         0.00000   0.00000   0.00000   0.00000   0.00000
  14        4XZ         0.00000   0.00000   0.00000   0.01444   0.00000
  15        4YZ         0.00000   0.00000   0.01444   0.00000   0.00000
  16 2   N  1S          0.15365  -0.04877   0.00000   0.00000   0.08495
  17        2S         -0.36903   0.07849   0.00000   0.00000  -0.23254
  18        2PX         0.00000   0.00000   0.00000  -0.49231   0.00000
  19        2PY         0.00000   0.00000  -0.49231   0.00000   0.00000
  20        2PZ         0.17542  -0.44129   0.00000   0.00000  -0.08638
  21        3S         -0.62726   0.36030   0.00000   0.00000  -4.11605
  22        3PX         0.00000   0.00000   0.00000  -0.59815   0.00000
  23        3PY         0.00000   0.00000  -0.59815   0.00000   0.00000
  24        3PZ        -0.00817  -0.23503   0.00000   0.00000  -2.70947
  25        4XX        -0.00746   0.00585   0.00000   0.00000  -0.00380
  26        4YY        -0.00746   0.00585   0.00000   0.00000  -0.00380
  27        4ZZ         0.03016  -0.03362   0.00000   0.00000  -0.06019
  28        4XY         0.00000   0.00000   0.00000   0.00000   0.00000
  29        4XZ         0.00000   0.00000   0.00000   0.01444   0.00000
  30        4YZ         0.00000   0.00000   0.01444   0.00000   0.00000
                          11        12        13        14        15
                       (SGG)--V  (PIU)--V  (PIU)--V  (SGG)--V  (PIG)--V
     Eigenvalues --     0.44267   0.47072   0.47072   0.52508   0.64796
   1 1   N  1S          0.02699   0.00000   0.00000   0.01216   0.00000
   2        2S          0.61417   0.00000   0.00000  -0.59404   0.00000
   3        2PX         0.00000   0.00000  -0.60324   0.00000   0.00000
   4        2PY         0.00000  -0.60324   0.00000   0.00000  -0.69387
   5        2PZ        -0.26200   0.00000   0.00000  -0.47286   0.00000
   6        3S         -0.54296   0.00000   0.00000   0.93555   0.00000
   7        3PX         0.00000   0.00000   0.63247   0.00000   0.00000
   8        3PY         0.00000   0.63247   0.00000   0.00000   1.23113
   9        3PZ         0.79599   0.00000   0.00000   0.56955   0.00000
  10        4XX         0.08386   0.00000   0.00000  -0.14307   0.00000
  11        4YY         0.08386   0.00000   0.00000  -0.14307   0.00000
  12        4ZZ         0.18411   0.00000   0.00000  -0.13816   0.00000
  13        4XY         0.00000   0.00000   0.00000   0.00000   0.00000
  14        4XZ         0.00000   0.00000   0.09495   0.00000   0.00000
  15        4YZ         0.00000   0.09495   0.00000   0.00000  -0.06270
  16 2   N  1S          0.02699   0.00000   0.00000   0.01216   0.00000
  17        2S          0.61417   0.00000   0.00000  -0.59404   0.00000
  18        2PX         0.00000   0.00000  -0.60324   0.00000   0.00000
  19        2PY         0.00000  -0.60324   0.00000   0.00000   0.69387
  20        2PZ         0.26200   0.00000   0.00000   0.47286   0.00000
  21        3S         -0.54296   0.00000   0.00000   0.93555   0.00000
  22        3PX         0.00000   0.00000   0.63247   0.00000   0.00000
  23        3PY         0.00000   0.63247   0.00000   0.00000  -1.23113
  24        3PZ        -0.79599   0.00000   0.00000  -0.56955   0.00000
  25        4XX         0.08386   0.00000   0.00000  -0.14307   0.00000
  26        4YY         0.08386   0.00000   0.00000  -0.14307   0.00000
  27        4ZZ         0.18411   0.00000   0.00000  -0.13816   0.00000
  28        4XY         0.00000   0.00000   0.00000   0.00000   0.00000
  29        4XZ         0.00000   0.00000  -0.09495   0.00000   0.00000
  30        4YZ         0.00000  -0.09495   0.00000   0.00000  -0.06270
                          16        17        18        19        20
                       (PIG)--V  (SGU)--V  (SGU)--V  (DLTG)--  (DLTG)--
     Eigenvalues --     0.64796   0.76460   1.14668   1.30335   1.30335
   1 1   N  1S          0.00000  -0.07433  -0.01790   0.00000   0.00000
   2        2S          0.00000  -0.41107  -1.21790   0.00000   0.00000
   3        2PX        -0.69387   0.00000   0.00000   0.00000   0.00000
   4        2PY         0.00000   0.00000   0.00000   0.00000   0.00000
   5        2PZ         0.00000  -0.65791   0.33688   0.00000   0.00000
   6        3S          0.00000   2.40649   7.18814   0.00000   0.00000
   7        3PX         1.23113   0.00000   0.00000   0.00000   0.00000
   8        3PY         0.00000   0.00000   0.00000   0.00000   0.00000
   9        3PZ         0.00000  -0.54839  -3.25481   0.00000   0.00000
  10        4XX         0.00000  -0.03353  -0.24896   0.00000   0.56138
  11        4YY         0.00000  -0.03353  -0.24896   0.00000  -0.56138
  12        4ZZ         0.00000  -0.36653   0.10545   0.00000   0.00000
  13        4XY         0.00000   0.00000   0.00000   0.64823   0.00000
  14        4XZ        -0.06270   0.00000   0.00000   0.00000   0.00000
  15        4YZ         0.00000   0.00000   0.00000   0.00000   0.00000
  16 2   N  1S          0.00000   0.07433   0.01790   0.00000   0.00000
  17        2S          0.00000   0.41107   1.21790   0.00000   0.00000
  18        2PX         0.69387   0.00000   0.00000   0.00000   0.00000
  19        2PY         0.00000   0.00000   0.00000   0.00000   0.00000
  20        2PZ         0.00000  -0.65791   0.33688   0.00000   0.00000
  21        3S          0.00000  -2.40649  -7.18814   0.00000   0.00000
  22        3PX        -1.23113   0.00000   0.00000   0.00000   0.00000
  23        3PY         0.00000   0.00000   0.00000   0.00000   0.00000
  24        3PZ         0.00000  -0.54839  -3.25481   0.00000   0.00000
  25        4XX         0.00000   0.03353   0.24896   0.00000   0.56138
  26        4YY         0.00000   0.03353   0.24896   0.00000  -0.56138
  27        4ZZ         0.00000   0.36653  -0.10545   0.00000   0.00000
  28        4XY         0.00000   0.00000   0.00000   0.64823   0.00000
  29        4XZ        -0.06270   0.00000   0.00000   0.00000   0.00000
  30        4YZ         0.00000   0.00000   0.00000   0.00000   0.00000
                          21        22        23        24        25
                       (PIU)--V  (PIU)--V  (DLTU)--  (DLTU)--  (SGG)--V
     Eigenvalues --     1.47936   1.47936   1.86360   1.86360   2.36332
   1 1   N  1S          0.00000   0.00000   0.00000   0.00000   0.13855
   2        2S          0.00000   0.00000   0.00000   0.00000   0.34029
   3        2PX         0.29900   0.00000   0.00000   0.00000   0.00000
   4        2PY         0.00000   0.29900   0.00000   0.00000   0.00000
   5        2PZ         0.00000   0.00000   0.00000   0.00000  -0.32955
   6        3S          0.00000   0.00000   0.00000   0.00000  -0.54150
   7        3PX        -0.07083   0.00000   0.00000   0.00000   0.00000
   8        3PY         0.00000  -0.07083   0.00000   0.00000   0.00000
   9        3PZ         0.00000   0.00000   0.00000   0.00000   0.58854
  10        4XX         0.00000   0.00000   0.68038   0.00000   0.68445
  11        4YY         0.00000   0.00000  -0.68038   0.00000   0.68445
  12        4ZZ         0.00000   0.00000   0.00000   0.00000  -0.56356
  13        4XY         0.00000   0.00000   0.00000   0.78563   0.00000
  14        4XZ         0.59666   0.00000   0.00000   0.00000   0.00000
  15        4YZ         0.00000   0.59666   0.00000   0.00000   0.00000
  16 2   N  1S          0.00000   0.00000   0.00000   0.00000   0.13855
  17        2S          0.00000   0.00000   0.00000   0.00000   0.34029
  18        2PX         0.29900   0.00000   0.00000   0.00000   0.00000
  19        2PY         0.00000   0.29900   0.00000   0.00000   0.00000
  20        2PZ         0.00000   0.00000   0.00000   0.00000   0.32955
  21        3S          0.00000   0.00000   0.00000   0.00000  -0.54150
  22        3PX        -0.07083   0.00000   0.00000   0.00000   0.00000
  23        3PY         0.00000  -0.07083   0.00000   0.00000   0.00000
  24        3PZ         0.00000   0.00000   0.00000   0.00000  -0.58854
  25        4XX         0.00000   0.00000  -0.68038   0.00000   0.68445
  26        4YY         0.00000   0.00000   0.68038   0.00000   0.68445
  27        4ZZ         0.00000   0.00000   0.00000   0.00000  -0.56356
  28        4XY         0.00000   0.00000   0.00000  -0.78563   0.00000
  29        4XZ        -0.59666   0.00000   0.00000   0.00000   0.00000
  30        4YZ         0.00000  -0.59666   0.00000   0.00000   0.00000
                          26        27        28        29        30
                       (PIG)--V  (PIG)--V  (SGU)--V  (SGG)--V  (SGU)--V
     Eigenvalues --     2.55812   2.55812   2.86857   3.26135   3.59982
   1 1   N  1S          0.00000   0.00000   0.00504  -0.23371  -0.35695
   2        2S          0.00000   0.00000   0.59427   1.31211   0.49926
   3        2PX        -0.28004   0.00000   0.00000   0.00000   0.00000
   4        2PY         0.00000  -0.28004   0.00000   0.00000   0.00000
   5        2PZ         0.00000   0.00000  -1.18678  -0.13886   0.46838
   6        3S          0.00000   0.00000   3.27165   0.79819   4.12091
   7        3PX        -0.49515   0.00000   0.00000   0.00000   0.00000
   8        3PY         0.00000  -0.49515   0.00000   0.00000   0.00000
   9        3PZ         0.00000   0.00000  -1.68851   0.06859  -1.28583
  10        4XX         0.00000   0.00000  -0.51985  -0.77593  -1.07545
  11        4YY         0.00000   0.00000  -0.51985  -0.77593  -1.07545
  12        4ZZ         0.00000   0.00000   1.30667  -1.13268  -1.21724
  13        4XY         0.00000   0.00000   0.00000   0.00000   0.00000
  14        4XZ         1.13775   0.00000   0.00000   0.00000   0.00000
  15        4YZ         0.00000   1.13775   0.00000   0.00000   0.00000
  16 2   N  1S          0.00000   0.00000  -0.00504  -0.23371   0.35695
  17        2S          0.00000   0.00000  -0.59427   1.31211  -0.49926
  18        2PX         0.28004   0.00000   0.00000   0.00000   0.00000
  19        2PY         0.00000   0.28004   0.00000   0.00000   0.00000
  20        2PZ         0.00000   0.00000  -1.18678   0.13886   0.46838
  21        3S          0.00000   0.00000  -3.27165   0.79819  -4.12091
  22        3PX         0.49515   0.00000   0.00000   0.00000   0.00000
  23        3PY         0.00000   0.49515   0.00000   0.00000   0.00000
  24        3PZ         0.00000   0.00000  -1.68851  -0.06859  -1.28583
  25        4XX         0.00000   0.00000   0.51985  -0.77593   1.07545
  26        4YY         0.00000   0.00000   0.51985  -0.77593   1.07545
  27        4ZZ         0.00000   0.00000  -1.30667  -1.13268   1.21724
  28        4XY         0.00000   0.00000   0.00000   0.00000   0.00000
  29        4XZ         1.13775   0.00000   0.00000   0.00000   0.00000
  30        4YZ         0.00000   1.13775   0.00000   0.00000   0.00000
     Alpha Density Matrix:
                           1         2         3         4         5
   1 1   N  1S          1.04103
   2        2S         -0.09811   0.29671
   3        2PX         0.00000   0.00000   0.22653
   4        2PY         0.00000   0.00000   0.00000   0.22653
   5        2PZ        -0.03246   0.09376   0.00000   0.00000   0.36344
   6        3S         -0.11001   0.27575   0.00000   0.00000   0.21711
   7        3PX         0.00000   0.00000   0.09780   0.00000   0.00000
   8        3PY         0.00000   0.00000   0.00000   0.09780   0.00000
   9        3PZ        -0.00890   0.02569   0.00000   0.00000   0.08793
  10        4XX        -0.00151  -0.00584   0.00000   0.00000   0.00659
  11        4YY        -0.00151  -0.00584   0.00000   0.00000   0.00659
  12        4ZZ        -0.00766   0.01238   0.00000   0.00000  -0.01344
  13        4XY         0.00000   0.00000   0.00000   0.00000   0.00000
  14        4XZ         0.00000   0.00000  -0.02252   0.00000   0.00000
  15        4YZ         0.00000   0.00000   0.00000  -0.02252   0.00000
  16 2   N  1S          0.00733  -0.01314   0.00000   0.00000   0.04618
  17        2S         -0.01314   0.01461   0.00000   0.00000  -0.10144
  18        2PX         0.00000   0.00000   0.22653   0.00000   0.00000
  19        2PY         0.00000   0.00000   0.00000   0.22653   0.00000
  20        2PZ        -0.04618   0.10144   0.00000   0.00000  -0.22798
  21        3S          0.02806  -0.07761   0.00000   0.00000  -0.02802
  22        3PX         0.00000   0.00000   0.09780   0.00000   0.00000
  23        3PY         0.00000   0.00000   0.00000   0.09780   0.00000
  24        3PZ        -0.00019  -0.00230   0.00000   0.00000  -0.07171
  25        4XX         0.00121  -0.00239   0.00000   0.00000   0.00891
  26        4YY         0.00121  -0.00239   0.00000   0.00000   0.00891
  27        4ZZ        -0.00555   0.01042   0.00000   0.00000  -0.01483
  28        4XY         0.00000   0.00000   0.00000   0.00000   0.00000
  29        4XZ         0.00000   0.00000   0.02252   0.00000   0.00000
  30        4YZ         0.00000   0.00000   0.00000   0.02252   0.00000
                           6         7         8         9        10
   6        3S          0.31679
   7        3PX         0.00000   0.04222
   8        3PY         0.00000   0.00000   0.04222
   9        3PZ         0.04990   0.00000   0.00000   0.02397
  10        4XX        -0.00219   0.00000   0.00000   0.00157   0.00034
  11        4YY        -0.00219   0.00000   0.00000   0.00157   0.00034
  12        4ZZ         0.00399   0.00000   0.00000  -0.00265  -0.00066
  13        4XY         0.00000   0.00000   0.00000   0.00000   0.00000
  14        4XZ         0.00000  -0.00972   0.00000   0.00000   0.00000
  15        4YZ         0.00000   0.00000  -0.00972   0.00000   0.00000
  16 2   N  1S          0.02806   0.00000   0.00000   0.00019   0.00121
  17        2S         -0.07761   0.00000   0.00000   0.00230  -0.00239
  18        2PX         0.00000   0.09780   0.00000   0.00000   0.00000
  19        2PY         0.00000   0.00000   0.09780   0.00000   0.00000
  20        2PZ         0.02802   0.00000   0.00000  -0.07171  -0.00891
  21        3S         -0.12683   0.00000   0.00000   0.02054   0.00202
  22        3PX         0.00000   0.04222   0.00000   0.00000   0.00000
  23        3PY         0.00000   0.00000   0.04222   0.00000   0.00000
  24        3PZ        -0.02054   0.00000   0.00000  -0.02203  -0.00185
  25        4XX         0.00202   0.00000   0.00000   0.00185   0.00028
  26        4YY         0.00202   0.00000   0.00000   0.00185   0.00028
  27        4ZZ         0.00149   0.00000   0.00000  -0.00281  -0.00064
  28        4XY         0.00000   0.00000   0.00000   0.00000   0.00000
  29        4XZ         0.00000   0.00972   0.00000   0.00000   0.00000
  30        4YZ         0.00000   0.00000   0.00972   0.00000   0.00000
                          11        12        13        14        15
  11        4YY         0.00034
  12        4ZZ        -0.00066   0.00150
  13        4XY         0.00000   0.00000   0.00000
  14        4XZ         0.00000   0.00000   0.00000   0.00224
  15        4YZ         0.00000   0.00000   0.00000   0.00000   0.00224
  16 2   N  1S          0.00121  -0.00555   0.00000   0.00000   0.00000
  17        2S         -0.00239   0.01042   0.00000   0.00000   0.00000
  18        2PX         0.00000   0.00000   0.00000  -0.02252   0.00000
  19        2PY         0.00000   0.00000   0.00000   0.00000  -0.02252
  20        2PZ        -0.00891   0.01483   0.00000   0.00000   0.00000
  21        3S          0.00202   0.00149   0.00000   0.00000   0.00000
  22        3PX         0.00000   0.00000   0.00000  -0.00972   0.00000
  23        3PY         0.00000   0.00000   0.00000   0.00000  -0.00972
  24        3PZ        -0.00185   0.00281   0.00000   0.00000   0.00000
  25        4XX         0.00028  -0.00064   0.00000   0.00000   0.00000
  26        4YY         0.00028  -0.00064   0.00000   0.00000   0.00000
  27        4ZZ        -0.00064   0.00149   0.00000   0.00000   0.00000
  28        4XY         0.00000   0.00000   0.00000   0.00000   0.00000
  29        4XZ         0.00000   0.00000   0.00000  -0.00224   0.00000
  30        4YZ         0.00000   0.00000   0.00000   0.00000  -0.00224
                          16        17        18        19        20
  16 2   N  1S          1.04103
  17        2S         -0.09811   0.29671
  18        2PX         0.00000   0.00000   0.22653
  19        2PY         0.00000   0.00000   0.00000   0.22653
  20        2PZ         0.03246  -0.09376   0.00000   0.00000   0.36344
  21        3S         -0.11001   0.27575   0.00000   0.00000  -0.21711
  22        3PX         0.00000   0.00000   0.09780   0.00000   0.00000
  23        3PY         0.00000   0.00000   0.00000   0.09780   0.00000
  24        3PZ         0.00890  -0.02569   0.00000   0.00000   0.08793
  25        4XX        -0.00151  -0.00584   0.00000   0.00000  -0.00659
  26        4YY        -0.00151  -0.00584   0.00000   0.00000  -0.00659
  27        4ZZ        -0.00766   0.01238   0.00000   0.00000   0.01344
  28        4XY         0.00000   0.00000   0.00000   0.00000   0.00000
  29        4XZ         0.00000   0.00000   0.02252   0.00000   0.00000
  30        4YZ         0.00000   0.00000   0.00000   0.02252   0.00000
                          21        22        23        24        25
  21        3S          0.31679
  22        3PX         0.00000   0.04222
  23        3PY         0.00000   0.00000   0.04222
  24        3PZ        -0.04990   0.00000   0.00000   0.02397
  25        4XX        -0.00219   0.00000   0.00000  -0.00157   0.00034
  26        4YY        -0.00219   0.00000   0.00000  -0.00157   0.00034
  27        4ZZ         0.00399   0.00000   0.00000   0.00265  -0.00066
  28        4XY         0.00000   0.00000   0.00000   0.00000   0.00000
  29        4XZ         0.00000   0.00972   0.00000   0.00000   0.00000
  30        4YZ         0.00000   0.00000   0.00972   0.00000   0.00000
                          26        27        28        29        30
  26        4YY         0.00034
  27        4ZZ        -0.00066   0.00150
  28        4XY         0.00000   0.00000   0.00000
  29        4XZ         0.00000   0.00000   0.00000   0.00224
  30        4YZ         0.00000   0.00000   0.00000   0.00000   0.00224
     Beta Density Matrix:
                           1         2         3         4         5
   1 1   N  1S          1.04093
   2        2S         -0.09263   0.26669
   3        2PX         0.00000   0.00000   0.22016
   4        2PY         0.00000   0.00000   0.00000   0.22016
   5        2PZ         0.00448  -0.01030   0.00000   0.00000   0.07404
   6        3S         -0.12652   0.29338   0.00000   0.00000   0.07430
   7        3PX         0.00000   0.00000   0.09810   0.00000   0.00000
   8        3PY         0.00000   0.00000   0.00000   0.09810   0.00000
   9        3PZ         0.00762  -0.01466   0.00000   0.00000   0.00530
  10        4XX        -0.00280  -0.00007   0.00000   0.00000   0.00291
  11        4YY        -0.00280  -0.00007   0.00000   0.00000   0.00291
  12        4ZZ        -0.00138  -0.00320   0.00000   0.00000  -0.00989
  13        4XY         0.00000   0.00000   0.00000   0.00000   0.00000
  14        4XZ         0.00000   0.00000  -0.02614   0.00000   0.00000
  15        4YZ         0.00000   0.00000   0.00000  -0.02614   0.00000
  16 2   N  1S          0.00174  -0.00171   0.00000   0.00000   0.06118
  17        2S         -0.00171  -0.00619   0.00000   0.00000  -0.13971
  18        2PX         0.00000   0.00000   0.22016   0.00000   0.00000
  19        2PY         0.00000   0.00000   0.00000   0.22016   0.00000
  20        2PZ        -0.06118   0.13971   0.00000   0.00000  -0.01248
  21        3S          0.07086  -0.16947   0.00000   0.00000  -0.14578
  22        3PX         0.00000   0.00000   0.09810   0.00000   0.00000
  23        3PY         0.00000   0.00000   0.00000   0.09810   0.00000
  24        3PZ        -0.00332   0.00867   0.00000   0.00000  -0.00817
  25        4XX         0.00231  -0.00552   0.00000   0.00000   0.00028
  26        4YY         0.00231  -0.00552   0.00000   0.00000   0.00028
  27        4ZZ        -0.00895   0.01910   0.00000   0.00000   0.00069
  28        4XY         0.00000   0.00000   0.00000   0.00000   0.00000
  29        4XZ         0.00000   0.00000   0.02614   0.00000   0.00000
  30        4YZ         0.00000   0.00000   0.00000   0.02614   0.00000
                           6         7         8         9        10
   6        3S          0.42300
   7        3PX         0.00000   0.04371
   8        3PY         0.00000   0.00000   0.04371
   9        3PZ        -0.01069   0.00000   0.00000   0.00112
  10        4XX         0.00337   0.00000   0.00000   0.00018   0.00012
  11        4YY         0.00337   0.00000   0.00000   0.00018   0.00012
  12        4ZZ        -0.01511   0.00000   0.00000  -0.00047  -0.00039
  13        4XY         0.00000   0.00000   0.00000   0.00000   0.00000
  14        4XZ         0.00000  -0.01165   0.00000   0.00000   0.00000
  15        4YZ         0.00000   0.00000  -0.01165   0.00000   0.00000
  16 2   N  1S          0.07086   0.00000   0.00000   0.00332   0.00231
  17        2S         -0.16947   0.00000   0.00000  -0.00867  -0.00552
  18        2PX         0.00000   0.09810   0.00000   0.00000   0.00000
  19        2PY         0.00000   0.00000   0.09810   0.00000   0.00000
  20        2PZ         0.14578   0.00000   0.00000  -0.00817  -0.00028
  21        3S         -0.36394   0.00000   0.00000  -0.00044  -0.00600
  22        3PX         0.00000   0.04371   0.00000   0.00000   0.00000
  23        3PY         0.00000   0.00000   0.04371   0.00000   0.00000
  24        3PZ         0.00044   0.00000   0.00000  -0.00098  -0.00031
  25        4XX        -0.00600   0.00000   0.00000   0.00031   0.00000
  26        4YY        -0.00600   0.00000   0.00000   0.00031   0.00000
  27        4ZZ         0.02272   0.00000   0.00000  -0.00096   0.00006
  28        4XY         0.00000   0.00000   0.00000   0.00000   0.00000
  29        4XZ         0.00000   0.01165   0.00000   0.00000   0.00000
  30        4YZ         0.00000   0.00000   0.01165   0.00000   0.00000
                          11        12        13        14        15
  11        4YY         0.00012
  12        4ZZ        -0.00039   0.00141
  13        4XY         0.00000   0.00000   0.00000
  14        4XZ         0.00000   0.00000   0.00000   0.00310
  15        4YZ         0.00000   0.00000   0.00000   0.00000   0.00310
  16 2   N  1S          0.00231  -0.00895   0.00000   0.00000   0.00000
  17        2S         -0.00552   0.01910   0.00000   0.00000   0.00000
  18        2PX         0.00000   0.00000   0.00000  -0.02614   0.00000
  19        2PY         0.00000   0.00000   0.00000   0.00000  -0.02614
  20        2PZ        -0.00028  -0.00069   0.00000   0.00000   0.00000
  21        3S         -0.00600   0.02272   0.00000   0.00000   0.00000
  22        3PX         0.00000   0.00000   0.00000  -0.01165   0.00000
  23        3PY         0.00000   0.00000   0.00000   0.00000  -0.01165
  24        3PZ        -0.00031   0.00096   0.00000   0.00000   0.00000
  25        4XX         0.00000   0.00006   0.00000   0.00000   0.00000
  26        4YY         0.00000   0.00006   0.00000   0.00000   0.00000
  27        4ZZ         0.00006  -0.00042   0.00000   0.00000   0.00000
  28        4XY         0.00000   0.00000   0.00000   0.00000   0.00000
  29        4XZ         0.00000   0.00000   0.00000  -0.00310   0.00000
  30        4YZ         0.00000   0.00000   0.00000   0.00000  -0.00310
                          16        17        18        19        20
  16 2   N  1S          1.04093
  17        2S         -0.09263   0.26669
  18        2PX         0.00000   0.00000   0.22016
  19        2PY         0.00000   0.00000   0.00000   0.22016
  20        2PZ        -0.00448   0.01030   0.00000   0.00000   0.07404
  21        3S         -0.12652   0.29338   0.00000   0.00000  -0.07430
  22        3PX         0.00000   0.00000   0.09810   0.00000   0.00000
  23        3PY         0.00000   0.00000   0.00000   0.09810   0.00000
  24        3PZ        -0.00762   0.01466   0.00000   0.00000   0.00530
  25        4XX        -0.00280  -0.00007   0.00000   0.00000  -0.00291
  26        4YY        -0.00280  -0.00007   0.00000   0.00000  -0.00291
  27        4ZZ        -0.00138  -0.00320   0.00000   0.00000   0.00989
  28        4XY         0.00000   0.00000   0.00000   0.00000   0.00000
  29        4XZ         0.00000   0.00000   0.02614   0.00000   0.00000
  30        4YZ         0.00000   0.00000   0.00000   0.02614   0.00000
                          21        22        23        24        25
  21        3S          0.42300
  22        3PX         0.00000   0.04371
  23        3PY         0.00000   0.00000   0.04371
  24        3PZ         0.01069   0.00000   0.00000   0.00112
  25        4XX         0.00337   0.00000   0.00000  -0.00018   0.00012
  26        4YY         0.00337   0.00000   0.00000  -0.00018   0.00012
  27        4ZZ        -0.01511   0.00000   0.00000   0.00047  -0.00039
  28        4XY         0.00000   0.00000   0.00000   0.00000   0.00000
  29        4XZ         0.00000   0.01165   0.00000   0.00000   0.00000
  30        4YZ         0.00000   0.00000   0.01165   0.00000   0.00000
                          26        27        28        29        30
  26        4YY         0.00012
  27        4ZZ        -0.00039   0.00141
  28        4XY         0.00000   0.00000   0.00000
  29        4XZ         0.00000   0.00000   0.00000   0.00310
  30        4YZ         0.00000   0.00000   0.00000   0.00000   0.00310
    Full Mulliken population analysis:
                           1         2         3         4         5
   1 1   N  1S          2.08196
   2        2S         -0.04238   0.56340
   3        2PX         0.00000   0.00000   0.44668
   4        2PY         0.00000   0.00000   0.00000   0.44668
   5        2PZ         0.00000   0.00000   0.00000   0.00000   0.43747
   6        3S         -0.04065   0.44137   0.00000   0.00000   0.00000
   7        3PX         0.00000   0.00000   0.10173   0.00000   0.00000
   8        3PY         0.00000   0.00000   0.00000   0.10173   0.00000
   9        3PZ         0.00000   0.00000   0.00000   0.00000   0.04841
  10        4XX        -0.00022  -0.00376   0.00000   0.00000   0.00000
  11        4YY        -0.00022  -0.00376   0.00000   0.00000   0.00000
  12        4ZZ        -0.00046   0.00584   0.00000   0.00000   0.00000
  13        4XY         0.00000   0.00000   0.00000   0.00000   0.00000
  14        4XZ         0.00000   0.00000   0.00000   0.00000   0.00000
  15        4YZ         0.00000   0.00000   0.00000   0.00000   0.00000
  16 2   N  1S          0.00000  -0.00039   0.00000   0.00000  -0.00586
  17        2S         -0.00039   0.00198   0.00000   0.00000   0.07576
  18        2PX         0.00000   0.00000   0.06095   0.00000   0.00000
  19        2PY         0.00000   0.00000   0.00000   0.06095   0.00000
  20        2PZ        -0.00586   0.07576   0.00000   0.00000   0.08435
  21        3S          0.00725  -0.09726   0.00000   0.00000   0.04180
  22        3PX         0.00000   0.00000   0.05021   0.00000   0.00000
  23        3PY         0.00000   0.00000   0.00000   0.05021   0.00000
  24        3PZ        -0.00047   0.00363   0.00000   0.00000   0.00840
  25        4XX         0.00001  -0.00102   0.00000   0.00000  -0.00150
  26        4YY         0.00001  -0.00102   0.00000   0.00000  -0.00150
  27        4ZZ        -0.00191   0.01435   0.00000   0.00000   0.00619
  28        4XY         0.00000   0.00000   0.00000   0.00000   0.00000
  29        4XZ         0.00000   0.00000   0.01490   0.00000   0.00000
  30        4YZ         0.00000   0.00000   0.00000   0.01490   0.00000
                           6         7         8         9        10
   6        3S          0.73979
   7        3PX         0.00000   0.08593
   8        3PY         0.00000   0.00000   0.08593
   9        3PZ         0.00000   0.00000   0.00000   0.02509
  10        4XX         0.00079   0.00000   0.00000   0.00000   0.00046
  11        4YY         0.00079   0.00000   0.00000   0.00000   0.00015
  12        4ZZ        -0.00745   0.00000   0.00000   0.00000  -0.00035
  13        4XY         0.00000   0.00000   0.00000   0.00000   0.00000
  14        4XZ         0.00000   0.00000   0.00000   0.00000   0.00000
  15        4YZ         0.00000   0.00000   0.00000   0.00000   0.00000
  16 2   N  1S          0.00725   0.00000   0.00000  -0.00047   0.00001
  17        2S         -0.09726   0.00000   0.00000   0.00363  -0.00102
  18        2PX         0.00000   0.05021   0.00000   0.00000   0.00000
  19        2PY         0.00000   0.00000   0.05021   0.00000   0.00000
  20        2PZ         0.04180   0.00000   0.00000   0.00840  -0.00150
  21        3S         -0.31599   0.00000   0.00000  -0.01215  -0.00133
  22        3PX         0.00000   0.05533   0.00000   0.00000   0.00000
  23        3PY         0.00000   0.00000   0.05533   0.00000   0.00000
  24        3PZ        -0.01215   0.00000   0.00000  -0.00177  -0.00107
  25        4XX        -0.00133   0.00000   0.00000  -0.00107   0.00005
  26        4YY        -0.00133   0.00000   0.00000  -0.00107   0.00002
  27        4ZZ         0.01108   0.00000   0.00000   0.00157  -0.00016
  28        4XY         0.00000   0.00000   0.00000   0.00000   0.00000
  29        4XZ         0.00000   0.00486   0.00000   0.00000   0.00000
  30        4YZ         0.00000   0.00000   0.00486   0.00000   0.00000
                          11        12        13        14        15
  11        4YY         0.00046
  12        4ZZ        -0.00035   0.00291
  13        4XY         0.00000   0.00000   0.00000
  14        4XZ         0.00000   0.00000   0.00000   0.00534
  15        4YZ         0.00000   0.00000   0.00000   0.00000   0.00534
  16 2   N  1S          0.00001  -0.00191   0.00000   0.00000   0.00000
  17        2S         -0.00102   0.01435   0.00000   0.00000   0.00000
  18        2PX         0.00000   0.00000   0.00000   0.01490   0.00000
  19        2PY         0.00000   0.00000   0.00000   0.00000   0.01490
  20        2PZ        -0.00150   0.00619   0.00000   0.00000   0.00000
  21        3S         -0.00133   0.01108   0.00000   0.00000   0.00000
  22        3PX         0.00000   0.00000   0.00000   0.00486   0.00000
  23        3PY         0.00000   0.00000   0.00000   0.00000   0.00486
  24        3PZ        -0.00107   0.00157   0.00000   0.00000   0.00000
  25        4XX         0.00002  -0.00016   0.00000   0.00000   0.00000
  26        4YY         0.00005  -0.00016   0.00000   0.00000   0.00000
  27        4ZZ        -0.00016   0.00050   0.00000   0.00000   0.00000
  28        4XY         0.00000   0.00000   0.00000   0.00000   0.00000
  29        4XZ         0.00000   0.00000   0.00000   0.00236   0.00000
  30        4YZ         0.00000   0.00000   0.00000   0.00000   0.00236
                          16        17        18        19        20
  16 2   N  1S          2.08196
  17        2S         -0.04238   0.56340
  18        2PX         0.00000   0.00000   0.44668
  19        2PY         0.00000   0.00000   0.00000   0.44668
  20        2PZ         0.00000   0.00000   0.00000   0.00000   0.43747
  21        3S         -0.04065   0.44137   0.00000   0.00000   0.00000
  22        3PX         0.00000   0.00000   0.10173   0.00000   0.00000
  23        3PY         0.00000   0.00000   0.00000   0.10173   0.00000
  24        3PZ         0.00000   0.00000   0.00000   0.00000   0.04841
  25        4XX        -0.00022  -0.00376   0.00000   0.00000   0.00000
  26        4YY        -0.00022  -0.00376   0.00000   0.00000   0.00000
  27        4ZZ        -0.00046   0.00584   0.00000   0.00000   0.00000
  28        4XY         0.00000   0.00000   0.00000   0.00000   0.00000
  29        4XZ         0.00000   0.00000   0.00000   0.00000   0.00000
  30        4YZ         0.00000   0.00000   0.00000   0.00000   0.00000
                          21        22        23        24        25
  21        3S          0.73979
  22        3PX         0.00000   0.08593
  23        3PY         0.00000   0.00000   0.08593
  24        3PZ         0.00000   0.00000   0.00000   0.02509
  25        4XX         0.00079   0.00000   0.00000   0.00000   0.00046
  26        4YY         0.00079   0.00000   0.00000   0.00000   0.00015
  27        4ZZ        -0.00745   0.00000   0.00000   0.00000  -0.00035
  28        4XY         0.00000   0.00000   0.00000   0.00000   0.00000
  29        4XZ         0.00000   0.00000   0.00000   0.00000   0.00000
  30        4YZ         0.00000   0.00000   0.00000   0.00000   0.00000
                          26        27        28        29        30
  26        4YY         0.00046
  27        4ZZ        -0.00035   0.00291
  28        4XY         0.00000   0.00000   0.00000
  29        4XZ         0.00000   0.00000   0.00000   0.00534
  30        4YZ         0.00000   0.00000   0.00000   0.00000   0.00534
     Gross orbital populations:
                         Total     Alpha     Beta      Spin
   1 1   N  1S          1.99667   0.99822   0.99845  -0.00023
   2        2S          0.95673   0.49675   0.45998   0.03677
   3        2PX         0.67447   0.34019   0.33429   0.00590
   4        2PY         0.67447   0.34019   0.33429   0.00590
   5        2PZ         0.69354   0.53629   0.15725   0.37904
   6        3S          0.76672   0.39768   0.36903   0.02865
   7        3PX         0.29807   0.14748   0.15059  -0.00311
   8        3PY         0.29807   0.14748   0.15059  -0.00311
   9        3PZ         0.07057   0.06107   0.00951   0.05156
  10        4XX        -0.00791  -0.00713  -0.00078  -0.00634
  11        4YY        -0.00791  -0.00713  -0.00078  -0.00634
  12        4ZZ         0.03159   0.02425   0.00735   0.01690
  13        4XY         0.00000   0.00000   0.00000   0.00000
  14        4XZ         0.02746   0.01234   0.01513  -0.00279
  15        4YZ         0.02746   0.01234   0.01513  -0.00279
  16 2   N  1S          1.99667   0.99822   0.99845  -0.00023
  17        2S          0.95673   0.49675   0.45998   0.03677
  18        2PX         0.67447   0.34019   0.33429   0.00590
  19        2PY         0.67447   0.34019   0.33429   0.00590
  20        2PZ         0.69354   0.53629   0.15725   0.37904
  21        3S          0.76672   0.39768   0.36903   0.02865
  22        3PX         0.29807   0.14748   0.15059  -0.00311
  23        3PY         0.29807   0.14748   0.15059  -0.00311
  24        3PZ         0.07057   0.06107   0.00951   0.05156
  25        4XX        -0.00791  -0.00713  -0.00078  -0.00634
  26        4YY        -0.00791  -0.00713  -0.00078  -0.00634
  27        4ZZ         0.03159   0.02425   0.00735   0.01690
  28        4XY         0.00000   0.00000   0.00000   0.00000
  29        4XZ         0.02746   0.01234   0.01513  -0.00279
  30        4YZ         0.02746   0.01234   0.01513  -0.00279
          Condensed to atoms (all electrons):
               1          2
     1  N    6.129886   0.370114
     2  N    0.370114   6.129886
          Atomic-Atomic Spin Densities.
               1          2
     1  N    0.321068   0.178932
     2  N    0.178932   0.321068
 Mulliken charges and spin densities:
               1          2
     1  N    0.500000   0.500000
     2  N    0.500000   0.500000
 Sum of Mulliken charges =   1.00000   1.00000
 Mulliken charges and spin densities with hydrogens summed into heavy atoms:
               1          2
     1  N    0.500000   0.500000
     2  N    0.500000   0.500000
 Atomic Valencies and Mayer Atomic Bond Orders:
               1          2
     1  N    2.689941   2.689941
     2  N    2.689941   2.689941
 Lowdin Atomic Charges:
               1
     1  N    0.500000
     2  N    0.500000
 Sum of Lowdin charges  =   1.00000
 Lowdin atomic charges with hydrogens summed into heavy atoms:
               1
     1  N    0.500000
     2  N    0.500000
 Sum of Lowdin charges  =   1.00000
 Dipole moment from Lowdin charges (Debye):
    X=     0.0000    Y=     0.0000    Z=     0.0000  Tot=     0.0000
 Electronic spatial extent (au):  <R**2>=             31.6875
 Charge=              1.0000 electrons
 Dipole moment (field-independent basis, Debye):
    X=              0.0000    Y=              0.0000    Z=              0.0000  Tot=              0.0000
 Quadrupole moment (field-independent basis, Debye-Ang):
   XX=             -8.5401   YY=             -8.5401   ZZ=             -5.9900
   XY=              0.0000   XZ=              0.0000   YZ=              0.0000
 Traceless Quadrupole moment (field-independent basis, Debye-Ang):
   XX=             -0.8500   YY=             -0.8500   ZZ=              1.7001
   XY=              0.0000   XZ=              0.0000   YZ=              0.0000
 Octapole moment (field-independent basis, Debye-Ang**2):
  XXX=              0.0000  YYY=              0.0000  ZZZ=              0.0000  XYY=              0.0000
  XXY=              0.0000  XXZ=              0.0000  XZZ=              0.0000  YZZ=              0.0000
  YYZ=              0.0000  XYZ=              0.0000
 Hexadecapole moment (field-independent basis, Debye-Ang**3):
 XXXX=             -6.3038 YYYY=             -6.3038 ZZZZ=            -18.7630 XXXY=              0.0000
 XXXZ=              0.0000 YYYX=              0.0000 YYYZ=              0.0000 ZZZX=              0.0000
 ZZZY=              0.0000 XXYY=             -2.1013 XXZZ=             -4.2888 YYZZ=             -4.2888
 XXYZ=              0.0000 YYXZ=              0.0000 ZZXY=              0.0000
 N-N= 2.404458755648D+01 E-N=-2.965677038601D+02  KE= 1.080208377820D+02
 Symmetry AG   KE= 5.163720926864D+01
 Symmetry B1G  KE= 1.500891412893D-34
 Symmetry B2G  KE= 1.986944197650D-32
 Symmetry B3G  KE= 2.749105698137D-32
 Symmetry AU   KE= 5.984415223205D-34
 Symmetry B1U  KE= 4.915115601665D+01
 Symmetry B2U  KE= 3.616236248340D+00
 Symmetry B3U  KE= 3.616236248339D+00
 Orbital energies and kinetic energies (alpha):
                                 1                 2
   1 (SGG)--O                -16.204645         22.058486
   2 (SGU)--O                -16.200588         22.101790
   3 (SGG)--O                 -1.958529          2.660646
   4 (SGU)--O                 -1.269251          2.492435
   5 (SGG)--O                 -1.149618          2.250566
   6 (PIU)--O                 -1.057366          1.819591
   7 (PIU)--O                 -1.057366          1.819591
   8 (PIG)--V                 -0.241360          2.045233
   9 (PIG)--V                 -0.241360          2.045233
  10 (SGU)--V                  0.251571          1.463189
  11 (SGG)--V                  0.410366          1.415280
  12 (SGG)--V                  0.450243          1.845702
  13 (PIU)--V                  0.460840          2.173425
  14 (PIU)--V                  0.460840          2.173425
  15 (SGU)--V                  0.631951          3.306215
  16 (PIG)--V                  0.636836          2.701245
  17 (PIG)--V                  0.636836          2.701245
  18 (SGU)--V                  1.138269          2.985068
  19 (DLTG)--V                 1.296920          2.587896
  20 (DLTG)--V                 1.296920          2.587896
  21 (PIU)--V                  1.413509          3.064085
  22 (PIU)--V                  1.413509          3.064085
  23 (DLTU)--V                 1.852883          3.111554
  24 (DLTU)--V                 1.852883          3.111554
  25 (SGG)--V                  2.297255          4.102875
  26 (PIG)--V                  2.511777          4.006170
  27 (PIG)--V                  2.511777          4.006170
  28 (SGU)--V                  2.794311          6.279462
  29 (SGG)--V                  3.236902          8.321599
  30 (SGU)--V                  3.561259          9.642139
 Orbital energies and kinetic energies (beta):
                                 1                 2
   1 (SGG)--O                -16.184374         22.091842
   2 (SGU)--O                -16.181635         22.131301
   3 (SGG)--O                 -1.892000          2.575669
   4 (PIU)--O                 -1.039841          1.796645
   5 (PIU)--O                 -1.039841          1.796645
   6 (SGU)--O                 -1.037819          2.425630
   7 (SGG)--V                 -0.528360          1.890894
   8 (PIG)--V                 -0.208461          2.018416
   9 (PIG)--V                 -0.208461          2.018416
  10 (SGU)--V                  0.265307          1.372627
  11 (SGG)--V                  0.442672          1.428801
  12 (PIU)--V                  0.470718          2.188351
  13 (PIU)--V                  0.470718          2.188351
  14 (SGG)--V                  0.525078          2.184671
  15 (PIG)--V                  0.647957          2.746094
  16 (PIG)--V                  0.647957          2.746094
  17 (SGU)--V                  0.764597          3.268948
  18 (SGU)--V                  1.146676          3.070640
  19 (DLTG)--V                 1.303346          2.587896
  20 (DLTG)--V                 1.303346          2.587896
  21 (PIU)--V                  1.479363          3.072105
  22 (PIU)--V                  1.479363          3.072105
  23 (DLTU)--V                 1.863601          3.111554
  24 (DLTU)--V                 1.863601          3.111554
  25 (SGG)--V                  2.363322          4.167358
  26 (PIG)--V                  2.558116          3.988139
  27 (PIG)--V                  2.558116          3.988139
  28 (SGU)--V                  2.868569          6.309454
  29 (SGG)--V                  3.261354          8.315920
  30 (SGU)--V                  3.599822          9.691698
 Total kinetic energy from orbitals= 1.080208377820D+02
                          Isotropic Fermi Contact Couplings
        Atom                 a.u.       MegaHertz       Gauss      10(-4) cm-1
     1  N(14)              0.04639      14.98954       5.34864       4.99997
     2  N(14)              0.04639      14.98954       5.34864       4.99997
 --------------------------------------------------------
       Center         ----  Spin Dipole Couplings  ----
                      3XX-RR        3YY-RR        3ZZ-RR
 --------------------------------------------------------
     1   Atom       -0.765154     -0.765154      1.530307
     2   Atom       -0.765154     -0.765154      1.530307
 --------------------------------------------------------
                        XY            XZ            YZ
 --------------------------------------------------------
     1   Atom        0.000000      0.000000      0.000000
     2   Atom        0.000000      0.000000      0.000000
 --------------------------------------------------------


 ---------------------------------------------------------------------------------
              Anisotropic Spin Dipole Couplings in Principal Axis System
 ---------------------------------------------------------------------------------

       Atom             a.u.   MegaHertz   Gauss  10(-4) cm-1        Axes

              Baa    -0.7652   -29.510   -10.530    -9.844  0.0000  1.0000  0.0000
     1 N(14)  Bbb    -0.7652   -29.510   -10.530    -9.844  1.0000  0.0000  0.0000
              Bcc     1.5303    59.021    21.060    19.687  0.0000  0.0000  1.0000
 
              Baa    -0.7652   -29.510   -10.530    -9.844  0.0000  1.0000  0.0000
     2 N(14)  Bbb    -0.7652   -29.510   -10.530    -9.844  1.0000  0.0000  0.0000
              Bcc     1.5303    59.021    21.060    19.687  0.0000  0.0000  1.0000
 

 ---------------------------------------------------------------------------------

 No NMR shielding tensors so no spin-rotation constants.
 Leave Link  601 at Wed Mar 25 12:54:02 2026, MaxMem=    33554432 cpu:         0.1
 (Enter /opt/g09/g09/l9999.exe)

 Test job not archived.
 1\1\GINC-KADET27\SP\UHF\6-31G(d)\N2(1+,2)\MDOROHUN\25-Mar-2026\4\\#P H
 F/6-31G(d) guess=(read,alter) GFInput Pop=Full IOP(6/80=1)\\n2 energia
  jonu w stanie Sigma\\1,2\N\N,1,1.0784\\\5,7\\Version=ES64L-G09RevD.01
 \State=2-SGG\HF=-108.3652819\S2=0.764727\S2-1=0.\S2A=0.750038\RMSD=4.3
 74e-09\Dipole=0.,0.,0.\Quadrupole=-0.6319853,-0.6319853,1.2639707,0.,0
 .,0.\PG=D*H [C*(N1.N1)]\\@


 HE THAT WALD REACHE THE SWEITE ROSE
 SULD NOW AND THEN BE SCRATCHED WT THE SCHARPE BREERES.
 -- PROVERBS AND REASONS OF THE YEAR 1585
           AS REPRINTED IN PAISLEY MAGAZINE 1828.
 Job cpu time:       0 days  0 hours  0 minutes  0.3 seconds.
 File lengths (MBytes):  RWF=      5 Int=      0 D2E=      0 Chk=      2 Scr=      1
 Normal termination of Gaussian 09 at Wed Mar 25 12:54:02 2026.
