 Entering Gaussian System, Link 0=/opt/g09/g09/g09
 Input=c3h7_rod.inp
 Output=c3h7_rod.log
 Initial command:
 /opt/g09/g09/l1.exe "/tmp/Gau-5149.inp" -scrdir="/tmp/"
 Entering Link 1 = /opt/g09/g09/l1.exe PID=      5151.
  
 Copyright (c) 1988,1990,1992,1993,1995,1998,2003,2009,2013,
            Gaussian, Inc.  All Rights Reserved.
  
 This is part of the Gaussian(R) 09 program.  It is based on
 the Gaussian(R) 03 system (copyright 2003, Gaussian, Inc.),
 the Gaussian(R) 98 system (copyright 1998, Gaussian, Inc.),
 the Gaussian(R) 94 system (copyright 1995, Gaussian, Inc.),
 the Gaussian 92(TM) system (copyright 1992, Gaussian, Inc.),
 the Gaussian 90(TM) system (copyright 1990, Gaussian, Inc.),
 the Gaussian 88(TM) system (copyright 1988, Gaussian, Inc.),
 the Gaussian 86(TM) system (copyright 1986, Carnegie Mellon
 University), and the Gaussian 82(TM) system (copyright 1983,
 Carnegie Mellon University). Gaussian is a federally registered
 trademark of Gaussian, Inc.
  
 This software contains proprietary and confidential information,
 including trade secrets, belonging to Gaussian, Inc.
  
 This software is provided under written license and may be
 used, copied, transmitted, or stored only in accord with that
 written license.
  
 The following legend is applicable only to US Government
 contracts under FAR:
  
                    RESTRICTED RIGHTS LEGEND
  
 Use, reproduction and disclosure by the US Government is
 subject to restrictions as set forth in subparagraphs (a)
 and (c) of the Commercial Computer Software - Restricted
 Rights clause in FAR 52.227-19.
  
 Gaussian, Inc.
 340 Quinnipiac St., Bldg. 40, Wallingford CT 06492
  
  
 ---------------------------------------------------------------
 Warning -- This program may not be used in any manner that
 competes with the business of Gaussian, Inc. or will provide
 assistance to any competitor of Gaussian, Inc.  The licensee
 of this program is prohibited from giving any competitor of
 Gaussian, Inc. access to this program.  By using this program,
 the user acknowledges that Gaussian, Inc. is engaged in the
 business of creating and licensing software in the field of
 computational chemistry and represents and warrants to the
 licensee that it is not a competitor of Gaussian, Inc. and that
 it will not use this program in any manner prohibited above.
 ---------------------------------------------------------------
  

 Cite this work as:
 Gaussian 09, Revision D.01,
 M. J. Frisch, G. W. Trucks, H. B. Schlegel, G. E. Scuseria, 
 M. A. Robb, J. R. Cheeseman, G. Scalmani, V. Barone, B. Mennucci, 
 G. A. Petersson, H. Nakatsuji, M. Caricato, X. Li, H. P. Hratchian, 
 A. F. Izmaylov, J. Bloino, G. Zheng, J. L. Sonnenberg, M. Hada, 
 M. Ehara, K. Toyota, R. Fukuda, J. Hasegawa, M. Ishida, T. Nakajima, 
 Y. Honda, O. Kitao, H. Nakai, T. Vreven, J. A. Montgomery, Jr., 
 J. E. Peralta, F. Ogliaro, M. Bearpark, J. J. Heyd, E. Brothers, 
 K. N. Kudin, V. N. Staroverov, T. Keith, R. Kobayashi, J. Normand, 
 K. Raghavachari, A. Rendell, J. C. Burant, S. S. Iyengar, J. Tomasi, 
 M. Cossi, N. Rega, J. M. Millam, M. Klene, J. E. Knox, J. B. Cross, 
 V. Bakken, C. Adamo, J. Jaramillo, R. Gomperts, R. E. Stratmann, 
 O. Yazyev, A. J. Austin, R. Cammi, C. Pomelli, J. W. Ochterski, 
 R. L. Martin, K. Morokuma, V. G. Zakrzewski, G. A. Voth, 
 P. Salvador, J. J. Dannenberg, S. Dapprich, A. D. Daniels, 
 O. Farkas, J. B. Foresman, J. V. Ortiz, J. Cioslowski, 
 and D. J. Fox, Gaussian, Inc., Wallingford CT, 2013.
 
 ******************************************
 Gaussian 09:  ES64L-G09RevD.01 24-Apr-2013
                15-Apr-2026 
 ******************************************
 -------------------------------------------------
 # UB3LYP/6-311G(d,p) GFInput Pop=Full IOP(6/80=1)
 -------------------------------------------------
 1/38=1/1;
 2/12=2,17=6,18=5,40=1/2;
 3/5=4,6=6,7=101,11=2,16=1,24=10,25=1,30=1,74=-5,116=2/1,2,3;
 4//1;
 5/5=2,38=5/2;
 6/7=3,28=1,80=1/1;
 99/5=1,9=1/99;
 -----------
 c3h7 rodnik
 -----------
 Symbolic Z-matrix:
 Charge =  0 Multiplicity = 2
 C                    -0.07959   0.01883  -0.08019 
 C                     0.07487   0.1117    1.4019 
 C                     1.42009  -0.00924   2.03886 
 H                    -0.75744   0.48406   1.99456 
 H                     1.36275  -0.014     3.13294 
 H                     1.93241  -0.9321    1.72476 
 H                     2.09204   0.82021   1.75221 
 H                    -1.12309  -0.13107  -0.37997 
 H                     0.27256   0.93234  -0.59589 
 H                     0.51481  -0.80918  -0.49332 
 
                          Input orientation:                          
 ---------------------------------------------------------------------
 Center     Atomic      Atomic             Coordinates (Angstroms)
 Number     Number       Type             X           Y           Z
 ---------------------------------------------------------------------
      1          6           0       -0.079593    0.018826   -0.080189
      2          6           0        0.074867    0.111703    1.401895
      3          6           0        1.420089   -0.009236    2.038861
      4          1           0       -0.757440    0.484055    1.994564
      5          1           0        1.362749   -0.013997    3.132935
      6          1           0        1.932411   -0.932104    1.724764
      7          1           0        2.092036    0.820211    1.752209
      8          1           0       -1.123087   -0.131069   -0.379965
      9          1           0        0.272563    0.932338   -0.595885
     10          1           0        0.514808   -0.809176   -0.493316
 ---------------------------------------------------------------------
                    Distance matrix (angstroms):
                    1          2          3          4          5
     1  C    0.000000
     2  C    1.493003   0.000000
     3  C    2.596191   1.493310   0.000000
     4  H    2.231707   1.087491   2.233144   0.000000
     5  H    3.522158   2.161236   1.095586   2.457467   0.000000
     6  H    2.865359   2.155052   1.101279   3.051819   1.774931
     7  H    2.952266   2.166489   1.105289   2.879453   1.770358
     8  H    1.095999   2.160800   3.511881   2.480013   4.305061
     9  H    1.106553   2.168790   3.024114   2.823524   3.998519
    10  H    1.099806   2.152531   2.805594   3.079060   3.808019
                    6          7          8          9         10
     6  H    0.000000
     7  H    1.759784   0.000000
     8  H    3.795736   3.973426   0.000000
     9  H    3.408321   2.972642   1.767850   0.000000
    10  H    2.635259   3.191384   1.776338   1.761271   0.000000
 Stoichiometry    C3H7(2)
 Framework group  C1[X(C3H7)]
 Deg. of freedom    24
 Full point group                 C1      NOp   1
 Largest Abelian subgroup         C1      NOp   1
 Largest concise Abelian subgroup C1      NOp   1
                         Standard orientation:                         
 ---------------------------------------------------------------------
 Center     Atomic      Atomic             Coordinates (Angstroms)
 Number     Number       Type             X           Y           Z
 ---------------------------------------------------------------------
      1          6           0        1.297780   -0.198965    0.002663
      2          6           0        0.000164    0.537889   -0.045269
      3          6           0       -1.298410   -0.197803    0.004078
      4          1           0        0.001787    1.615025    0.104441
      5          1           0       -2.158117    0.467256   -0.133439
      6          1           0       -1.348728   -0.977588   -0.771949
      7          1           0       -1.443334   -0.721567    0.966540
      8          1           0        2.143732    0.430776   -0.295673
      9          1           0        1.525532   -0.580249    1.016178
     10          1           0        1.281924   -1.080382   -0.654928
 ---------------------------------------------------------------------
 Rotational constants (GHZ):     37.1734397      8.3047942      7.4163850
 Standard basis: 6-311G(d,p) (5D, 7F)
 AO basis set in the form of general basis input (Overlap normalization):
      1 0
 S   6 1.00       0.000000000000
      0.4563240000D+04  0.1966650249D-02
      0.6820240000D+03  0.1523060193D-01
      0.1549730000D+03  0.7612690966D-01
      0.4445530000D+02  0.2608010331D+00
      0.1302900000D+02  0.6164620782D+00
      0.1827730000D+01  0.2210060280D+00
 SP   3 1.00       0.000000000000
      0.2096420000D+02  0.1146600807D+00  0.4024869267D-01
      0.4803310000D+01  0.9199996477D+00  0.2375939567D+00
      0.1459330000D+01 -0.3030682134D-02  0.8158538515D+00
 SP   1 1.00       0.000000000000
      0.4834560000D+00  0.1000000000D+01  0.1000000000D+01
 SP   1 1.00       0.000000000000
      0.1455850000D+00  0.1000000000D+01  0.1000000000D+01
 D   1 1.00       0.000000000000
      0.6260000000D+00  0.1000000000D+01
 ****
      2 0
 S   6 1.00       0.000000000000
      0.4563240000D+04  0.1966650249D-02
      0.6820240000D+03  0.1523060193D-01
      0.1549730000D+03  0.7612690966D-01
      0.4445530000D+02  0.2608010331D+00
      0.1302900000D+02  0.6164620782D+00
      0.1827730000D+01  0.2210060280D+00
 SP   3 1.00       0.000000000000
      0.2096420000D+02  0.1146600807D+00  0.4024869267D-01
      0.4803310000D+01  0.9199996477D+00  0.2375939567D+00
      0.1459330000D+01 -0.3030682134D-02  0.8158538515D+00
 SP   1 1.00       0.000000000000
      0.4834560000D+00  0.1000000000D+01  0.1000000000D+01
 SP   1 1.00       0.000000000000
      0.1455850000D+00  0.1000000000D+01  0.1000000000D+01
 D   1 1.00       0.000000000000
      0.6260000000D+00  0.1000000000D+01
 ****
      3 0
 S   6 1.00       0.000000000000
      0.4563240000D+04  0.1966650249D-02
      0.6820240000D+03  0.1523060193D-01
      0.1549730000D+03  0.7612690966D-01
      0.4445530000D+02  0.2608010331D+00
      0.1302900000D+02  0.6164620782D+00
      0.1827730000D+01  0.2210060280D+00
 SP   3 1.00       0.000000000000
      0.2096420000D+02  0.1146600807D+00  0.4024869267D-01
      0.4803310000D+01  0.9199996477D+00  0.2375939567D+00
      0.1459330000D+01 -0.3030682134D-02  0.8158538515D+00
 SP   1 1.00       0.000000000000
      0.4834560000D+00  0.1000000000D+01  0.1000000000D+01
 SP   1 1.00       0.000000000000
      0.1455850000D+00  0.1000000000D+01  0.1000000000D+01
 D   1 1.00       0.000000000000
      0.6260000000D+00  0.1000000000D+01
 ****
      4 0
 S   3 1.00       0.000000000000
      0.3386500000D+02  0.2549381454D-01
      0.5094790000D+01  0.1903731086D+00
      0.1158790000D+01  0.8521614860D+00
 S   1 1.00       0.000000000000
      0.3258400000D+00  0.1000000000D+01
 S   1 1.00       0.000000000000
      0.1027410000D+00  0.1000000000D+01
 P   1 1.00       0.000000000000
      0.7500000000D+00  0.1000000000D+01
 ****
      5 0
 S   3 1.00       0.000000000000
      0.3386500000D+02  0.2549381454D-01
      0.5094790000D+01  0.1903731086D+00
      0.1158790000D+01  0.8521614860D+00
 S   1 1.00       0.000000000000
      0.3258400000D+00  0.1000000000D+01
 S   1 1.00       0.000000000000
      0.1027410000D+00  0.1000000000D+01
 P   1 1.00       0.000000000000
      0.7500000000D+00  0.1000000000D+01
 ****
      6 0
 S   3 1.00       0.000000000000
      0.3386500000D+02  0.2549381454D-01
      0.5094790000D+01  0.1903731086D+00
      0.1158790000D+01  0.8521614860D+00
 S   1 1.00       0.000000000000
      0.3258400000D+00  0.1000000000D+01
 S   1 1.00       0.000000000000
      0.1027410000D+00  0.1000000000D+01
 P   1 1.00       0.000000000000
      0.7500000000D+00  0.1000000000D+01
 ****
      7 0
 S   3 1.00       0.000000000000
      0.3386500000D+02  0.2549381454D-01
      0.5094790000D+01  0.1903731086D+00
      0.1158790000D+01  0.8521614860D+00
 S   1 1.00       0.000000000000
      0.3258400000D+00  0.1000000000D+01
 S   1 1.00       0.000000000000
      0.1027410000D+00  0.1000000000D+01
 P   1 1.00       0.000000000000
      0.7500000000D+00  0.1000000000D+01
 ****
      8 0
 S   3 1.00       0.000000000000
      0.3386500000D+02  0.2549381454D-01
      0.5094790000D+01  0.1903731086D+00
      0.1158790000D+01  0.8521614860D+00
 S   1 1.00       0.000000000000
      0.3258400000D+00  0.1000000000D+01
 S   1 1.00       0.000000000000
      0.1027410000D+00  0.1000000000D+01
 P   1 1.00       0.000000000000
      0.7500000000D+00  0.1000000000D+01
 ****
      9 0
 S   3 1.00       0.000000000000
      0.3386500000D+02  0.2549381454D-01
      0.5094790000D+01  0.1903731086D+00
      0.1158790000D+01  0.8521614860D+00
 S   1 1.00       0.000000000000
      0.3258400000D+00  0.1000000000D+01
 S   1 1.00       0.000000000000
      0.1027410000D+00  0.1000000000D+01
 P   1 1.00       0.000000000000
      0.7500000000D+00  0.1000000000D+01
 ****
     10 0
 S   3 1.00       0.000000000000
      0.3386500000D+02  0.2549381454D-01
      0.5094790000D+01  0.1903731086D+00
      0.1158790000D+01  0.8521614860D+00
 S   1 1.00       0.000000000000
      0.3258400000D+00  0.1000000000D+01
 S   1 1.00       0.000000000000
      0.1027410000D+00  0.1000000000D+01
 P   1 1.00       0.000000000000
      0.7500000000D+00  0.1000000000D+01
 ****

 There are    99 symmetry adapted cartesian basis functions of A   symmetry.
 There are    96 symmetry adapted basis functions of A   symmetry.
    96 basis functions,   152 primitive gaussians,    99 cartesian basis functions
    13 alpha electrons       12 beta electrons
       nuclear repulsion energy        75.2201883934 Hartrees.
 NAtoms=   10 NActive=   10 NUniq=   10 SFac= 1.00D+00 NAtFMM=   60 NAOKFM=F Big=F
 Integral buffers will be    131072 words long.
 Raffenetti 2 integral format.
 Two-electron integral symmetry is turned on.
 One-electron integrals computed using PRISM.
 NBasis=    96 RedAO= T EigKep=  3.82D-03  NBF=    96
 NBsUse=    96 1.00D-06 EigRej= -1.00D+00 NBFU=    96
 ExpMin= 1.03D-01 ExpMax= 4.56D+03 ExpMxC= 6.82D+02 IAcc=1 IRadAn=         1 AccDes= 0.00D+00
 Harris functional with IExCor=  402 and IRadAn=       1 diagonalized for initial guess.
 HarFok:  IExCor=  402 AccDes= 0.00D+00 IRadAn=         1 IDoV= 1 UseB2=F ITyADJ=14
 ICtDFT=  3500011 ScaDFX=  1.000000  1.000000  1.000000  1.000000
 FoFCou: FMM=F IPFlag=           0 FMFlag=      100000 FMFlg1=           0
         NFxFlg=           0 DoJE=T BraDBF=F KetDBF=T FulRan=T
         wScrn=  0.000000 ICntrl=     500 IOpCl=  0 I1Cent=   200000004 NGrid=           0
         NMat0=    1 NMatS0=      1 NMatT0=    0 NMatD0=    1 NMtDS0=    0 NMtDT0=    0
 Petite list used in FoFCou.
 Initial guess <Sx>= 0.0000 <Sy>= 0.0000 <Sz>= 0.5000 <S**2>= 0.7500 S= 0.5000
 Keep R1 and R2 ints in memory in canonical form, NReq=22651478.
 Requested convergence on RMS density matrix=1.00D-08 within 128 cycles.
 Requested convergence on MAX density matrix=1.00D-06.
 Requested convergence on             energy=1.00D-06.
 No special actions if energy rises.
 Integral accuracy reduced to 1.0D-05 until final iterations.
 Initial convergence to 1.0D-05 achieved.  Increase integral accuracy.
 SCF Done:  E(UB3LYP) =  -118.514072384     A.U. after   13 cycles
            NFock= 13  Conv=0.59D-08     -V/T= 2.0055
 <Sx>= 0.0000 <Sy>= 0.0000 <Sz>= 0.5000 <S**2>= 0.7540 S= 0.5020
 <L.S>= 0.000000000000E+00
 Annihilation of the first spin contaminant:
 S**2 before annihilation     0.7540,   after     0.7500

 **********************************************************************

            Population analysis using the SCF density.

 **********************************************************************

 Orbital symmetries:
 Alpha Orbitals:
       Occupied  (A) (A) (A) (A) (A) (A) (A) (A) (A) (A) (A) (A)
                 (A)
       Virtual   (A) (A) (A) (A) (A) (A) (A) (A) (A) (A) (A) (A)
                 (A) (A) (A) (A) (A) (A) (A) (A) (A) (A) (A) (A)
                 (A) (A) (A) (A) (A) (A) (A) (A) (A) (A) (A) (A)
                 (A) (A) (A) (A) (A) (A) (A) (A) (A) (A) (A) (A)
                 (A) (A) (A) (A) (A) (A) (A) (A) (A) (A) (A) (A)
                 (A) (A) (A) (A) (A) (A) (A) (A) (A) (A) (A) (A)
                 (A) (A) (A) (A) (A) (A) (A) (A) (A) (A) (A)
 Beta  Orbitals:
       Occupied  (A) (A) (A) (A) (A) (A) (A) (A) (A) (A) (A) (A)
       Virtual   (A) (A) (A) (A) (A) (A) (A) (A) (A) (A) (A) (A)
                 (A) (A) (A) (A) (A) (A) (A) (A) (A) (A) (A) (A)
                 (A) (A) (A) (A) (A) (A) (A) (A) (A) (A) (A) (A)
                 (A) (A) (A) (A) (A) (A) (A) (A) (A) (A) (A) (A)
                 (A) (A) (A) (A) (A) (A) (A) (A) (A) (A) (A) (A)
                 (A) (A) (A) (A) (A) (A) (A) (A) (A) (A) (A) (A)
                 (A) (A) (A) (A) (A) (A) (A) (A) (A) (A) (A) (A)
 The electronic state is 2-A.
 Alpha  occ. eigenvalues --  -10.17237 -10.16301 -10.16296  -0.78181  -0.69131
 Alpha  occ. eigenvalues --   -0.57192  -0.45344  -0.43050  -0.41051  -0.38706
 Alpha  occ. eigenvalues --   -0.35740  -0.35042  -0.18574
 Alpha virt. eigenvalues --    0.04764   0.07585   0.08107   0.10894   0.12711
 Alpha virt. eigenvalues --    0.13181   0.14145   0.21396   0.26681   0.27309
 Alpha virt. eigenvalues --    0.29664   0.34041   0.35570   0.41121   0.41982
 Alpha virt. eigenvalues --    0.42747   0.48360   0.55225   0.56164   0.57710
 Alpha virt. eigenvalues --    0.59529   0.59853   0.60129   0.62011   0.64857
 Alpha virt. eigenvalues --    0.68490   0.80695   0.90902   0.97273   0.99263
 Alpha virt. eigenvalues --    1.15908   1.26901   1.34745   1.37905   1.42084
 Alpha virt. eigenvalues --    1.45887   1.46014   1.47422   1.50188   1.51201
 Alpha virt. eigenvalues --    1.52960   1.53931   1.59830   1.69135   1.69553
 Alpha virt. eigenvalues --    1.75453   1.77357   1.85505   1.91387   1.92255
 Alpha virt. eigenvalues --    2.02194   2.06705   2.07076   2.21176   2.26861
 Alpha virt. eigenvalues --    2.28460   2.30927   2.31596   2.41213   2.42178
 Alpha virt. eigenvalues --    2.44475   2.46385   2.46822   2.49899   2.50984
 Alpha virt. eigenvalues --    2.57531   2.62782   2.64478   2.76173   2.78835
 Alpha virt. eigenvalues --    2.80565   2.86410   3.09899   3.30787   3.72745
 Alpha virt. eigenvalues --    3.78502   3.79652   3.81867   4.00191   4.26875
 Alpha virt. eigenvalues --   23.79448  23.89329  23.93918
  Beta  occ. eigenvalues --  -10.16390 -10.16384 -10.15818  -0.76474  -0.68895
  Beta  occ. eigenvalues --   -0.55056  -0.44884  -0.41329  -0.40467  -0.38057
  Beta  occ. eigenvalues --   -0.35379  -0.34503
  Beta virt. eigenvalues --   -0.03969   0.04893   0.07917   0.08225   0.11273
  Beta virt. eigenvalues --    0.13059   0.13378   0.14368   0.22339   0.27134
  Beta virt. eigenvalues --    0.27592   0.30123   0.34400   0.36684   0.42672
  Beta virt. eigenvalues --    0.43165   0.43730   0.52770   0.55996   0.56821
  Beta virt. eigenvalues --    0.57946   0.59614   0.60001   0.60236   0.62822
  Beta virt. eigenvalues --    0.65324   0.69897   0.81902   0.91113   0.98901
  Beta virt. eigenvalues --    1.00540   1.15922   1.27358   1.36217   1.39781
  Beta virt. eigenvalues --    1.43158   1.46327   1.46491   1.47933   1.50771
  Beta virt. eigenvalues --    1.51569   1.53686   1.55412   1.61166   1.69584
  Beta virt. eigenvalues --    1.70771   1.76824   1.77836   1.87652   1.92759
  Beta virt. eigenvalues --    1.93918   2.02605   2.07181   2.07634   2.21985
  Beta virt. eigenvalues --    2.27660   2.29616   2.31434   2.31923   2.41985
  Beta virt. eigenvalues --    2.42862   2.44864   2.46639   2.47263   2.50620
  Beta virt. eigenvalues --    2.51691   2.57913   2.63354   2.65129   2.77155
  Beta virt. eigenvalues --    2.79577   2.84949   2.88302   3.10454   3.31487
  Beta virt. eigenvalues --    3.73076   3.78703   3.80119   3.82034   4.01698
  Beta virt. eigenvalues --    4.28282  23.80976  23.89315  23.93831
     Alpha Molecular Orbital Coefficients:
                           1         2         3         4         5
                           O         O         O         O         O
     Eigenvalues --   -10.17237 -10.16301 -10.16296  -0.78181  -0.69131
   1 1   C  1S          0.00809  -0.08341   0.55670  -0.06309   0.07785
   2        2S          0.00668  -0.06860   0.45811  -0.09737   0.12069
   3        2PX        -0.00061  -0.00008  -0.00010  -0.02450  -0.00881
   4        2PY         0.00039   0.00002   0.00005   0.01021  -0.00146
   5        2PZ        -0.00005  -0.00001   0.00002  -0.00037  -0.00028
   6        3S          0.00045  -0.00303   0.01813   0.25517  -0.32012
   7        3PX         0.00192   0.00038   0.00116  -0.04173  -0.00960
   8        3PY        -0.00121  -0.00009  -0.00066   0.01832  -0.00401
   9        3PZ         0.00018   0.00004  -0.00005  -0.00044  -0.00063
  10        4S          0.00384   0.00290  -0.00681   0.11058  -0.18062
  11        4PX        -0.00179  -0.00102   0.00099  -0.00091  -0.01005
  12        4PY         0.00022   0.00001  -0.00049   0.00112   0.00274
  13        4PZ        -0.00044   0.00012  -0.00009   0.00238  -0.00072
  14        5D 0        0.00077   0.00005   0.00011  -0.00445  -0.00015
  15        5D+1       -0.00007   0.00000  -0.00002   0.00024   0.00013
  16        5D-1        0.00002   0.00000   0.00001   0.00002   0.00031
  17        5D+2       -0.00051  -0.00014  -0.00015   0.00449   0.00193
  18        5D-2        0.00098   0.00011   0.00035  -0.00557   0.00028
  19 2   C  1S          0.56252  -0.00685  -0.00923  -0.08074   0.00000
  20        2S          0.46340  -0.00562  -0.00758  -0.12568   0.00000
  21        2PX         0.00000  -0.00058   0.00043   0.00005  -0.07288
  22        2PY        -0.00014  -0.00025  -0.00034  -0.02248   0.00000
  23        2PZ         0.00001   0.00001   0.00000   0.00425   0.00003
  24        3S          0.01836  -0.00002  -0.00002   0.33452   0.00001
  25        3PX         0.00000   0.00152  -0.00112   0.00006  -0.11475
  26        3PY         0.00127   0.00077   0.00107  -0.03913  -0.00001
  27        3PZ         0.00048   0.00001   0.00003   0.00535   0.00003
  28        4S         -0.01080   0.00073   0.00098   0.20772  -0.00012
  29        4PX         0.00005  -0.00193   0.00145  -0.00031  -0.04230
  30        4PY         0.00327  -0.00016  -0.00012  -0.02160   0.00008
  31        4PZ         0.00001   0.00002   0.00009   0.00176  -0.00001
  32        5D 0       -0.00117   0.00021   0.00028  -0.00408   0.00001
  33        5D+1        0.00001   0.00003  -0.00002  -0.00004  -0.00127
  34        5D-1        0.00032   0.00007   0.00009  -0.00088  -0.00001
  35        5D+2       -0.00071  -0.00044  -0.00061   0.00547   0.00000
  36        5D-2        0.00000  -0.00091   0.00067  -0.00001   0.01479
  37 3   C  1S          0.00811   0.55672   0.08329  -0.06303  -0.07791
  38        2S          0.00670   0.45811   0.06858  -0.09729  -0.12078
  39        2PX         0.00060   0.00008   0.00011   0.02451  -0.00873
  40        2PY         0.00040   0.00004   0.00003   0.01013   0.00127
  41        2PZ        -0.00004   0.00001   0.00000  -0.00040   0.00018
  42        3S          0.00045   0.01821   0.00240   0.25493   0.32035
  43        3PX        -0.00188  -0.00102  -0.00071   0.04171  -0.00943
  44        3PY        -0.00125  -0.00058  -0.00028   0.01815   0.00374
  45        3PZ         0.00014  -0.00003   0.00004  -0.00046   0.00042
  46        4S          0.00380  -0.00737   0.00087   0.11043   0.18082
  47        4PX         0.00175  -0.00125   0.00076   0.00113  -0.00989
  48        4PY         0.00037  -0.00044  -0.00021   0.00026  -0.00278
  49        4PZ        -0.00028  -0.00001  -0.00004   0.00177   0.00092
  50        5D 0        0.00076   0.00010   0.00009  -0.00439   0.00005
  51        5D+1        0.00007   0.00001   0.00001  -0.00019   0.00008
  52        5D-1        0.00002   0.00002   0.00000  -0.00004  -0.00016
  53        5D+2       -0.00051  -0.00011  -0.00018   0.00448  -0.00197
  54        5D-2       -0.00097  -0.00030  -0.00020   0.00557   0.00028
  55 4   H  1S          0.00009  -0.00011  -0.00015   0.04655  -0.00004
  56        2S         -0.00433  -0.00046  -0.00069   0.05225  -0.00005
  57        3S          0.00165   0.00015   0.00017   0.00060  -0.00002
  58        4PX         0.00000   0.00014  -0.00010   0.00000  -0.00308
  59        4PY         0.00270   0.00028   0.00040  -0.01081   0.00001
  60        4PZ         0.00041   0.00004   0.00005  -0.00105   0.00001
  61 5   H  1S         -0.00006   0.00012  -0.00002   0.03787   0.06562
  62        2S         -0.00080  -0.00268  -0.00055   0.04549   0.07752
  63        3S          0.00014   0.00125   0.00054   0.00179   0.00761
  64        4PX        -0.00031  -0.00153  -0.00030   0.00801   0.00960
  65        4PY         0.00027   0.00135   0.00027  -0.00440  -0.00771
  66        4PZ        -0.00002  -0.00027  -0.00005   0.00095   0.00162
  67 6   H  1S         -0.00011   0.00009   0.00006   0.04065   0.06062
  68        2S         -0.00099  -0.00235  -0.00095   0.04854   0.07272
  69        3S          0.00030   0.00144   0.00006   0.00107   0.00733
  70        4PX         0.00013   0.00007  -0.00005   0.00149   0.00002
  71        4PY        -0.00023  -0.00136  -0.00026   0.00666   0.00850
  72        4PZ        -0.00035  -0.00142  -0.00034   0.00635   0.00828
  73 7   H  1S         -0.00017   0.00009   0.00007   0.04056   0.06186
  74        2S         -0.00083  -0.00223  -0.00092   0.04715   0.07442
  75        3S          0.00037   0.00134   0.00014   0.00024   0.00736
  76        4PX         0.00005  -0.00009  -0.00010   0.00203   0.00098
  77        4PY        -0.00013  -0.00086  -0.00015   0.00437   0.00570
  78        4PZ         0.00045   0.00171   0.00040  -0.00775  -0.01040
  79 8   H  1S         -0.00006  -0.00005   0.00011   0.03798  -0.06563
  80        2S         -0.00084   0.00024  -0.00273   0.04555  -0.07754
  81        3S          0.00019   0.00012   0.00134   0.00158  -0.00758
  82        4PX         0.00033  -0.00016   0.00152  -0.00790   0.00940
  83        4PY         0.00029  -0.00013   0.00130  -0.00419   0.00728
  84        4PZ        -0.00006   0.00006  -0.00058   0.00216  -0.00353
  85 9   H  1S         -0.00017   0.00005   0.00011   0.04023  -0.06236
  86        2S         -0.00082  -0.00022  -0.00234   0.04687  -0.07503
  87        3S          0.00049  -0.00028   0.00135  -0.00018  -0.00773
  88        4PX         0.00000   0.00006   0.00025  -0.00269   0.00188
  89        4PY        -0.00005   0.00008  -0.00060   0.00318  -0.00417
  90        4PZ         0.00048  -0.00014   0.00183  -0.00811   0.01103
  91 10  H  1S         -0.00009   0.00001   0.00011   0.04093  -0.05992
  92        2S         -0.00105  -0.00014  -0.00257   0.04915  -0.07177
  93        3S          0.00008  -0.00031   0.00137   0.00189  -0.00691
  94        4PX        -0.00016   0.00006  -0.00017  -0.00102  -0.00067
  95        4PY        -0.00028   0.00017  -0.00159   0.00763  -0.00951
  96        4PZ        -0.00030   0.00007  -0.00124   0.00544  -0.00694
                           6         7         8         9        10
                           O         O         O         O         O
     Eigenvalues --    -0.57192  -0.45344  -0.43050  -0.41051  -0.38706
   1 1   C  1S          0.03945  -0.00550   0.00107   0.00034   0.00085
   2        2S          0.06151  -0.00862   0.00166   0.00056   0.00134
   3        2PX        -0.05632   0.11128  -0.02072   0.02935  -0.00296
   4        2PY         0.05075   0.05524  -0.01221  -0.14009   0.02090
   5        2PZ        -0.00128   0.02153   0.13049   0.01962   0.14520
   6        3S         -0.16355   0.02138  -0.00430  -0.00467  -0.00374
   7        3PX        -0.08193   0.16077  -0.02960   0.04310  -0.00406
   8        3PY         0.07412   0.07967  -0.01783  -0.20357   0.03036
   9        3PZ        -0.00155   0.03145   0.18877   0.02831   0.20949
  10        4S         -0.13202   0.04162  -0.00793   0.02253  -0.00620
  11        4PX        -0.03113   0.08837  -0.01836   0.02070  -0.00186
  12        4PY         0.03417   0.05124  -0.01431  -0.12701   0.02274
  13        4PZ        -0.00122   0.01790   0.11752   0.01607   0.14533
  14        5D 0       -0.00658   0.00189   0.00895   0.01180   0.00954
  15        5D+1       -0.00035  -0.00432  -0.00174   0.00391   0.00524
  16        5D-1       -0.00090  -0.00667  -0.00615   0.00565  -0.01355
  17        5D+2        0.00341  -0.00593   0.00278  -0.00647   0.00400
  18        5D-2       -0.01104   0.00721  -0.00539   0.00346  -0.00463
  19 2   C  1S         -0.07659   0.01416   0.00088   0.00006  -0.00015
  20        2S         -0.12036   0.02243   0.00152   0.00010  -0.00023
  21        2PX         0.00003  -0.00024  -0.00064  -0.12904   0.01079
  22        2PY         0.05908   0.13153  -0.01739  -0.00030   0.00074
  23        2PZ         0.00659   0.01840   0.09475  -0.00026   0.00015
  24        3S          0.33046  -0.06577  -0.00553  -0.00020   0.00029
  25        3PX         0.00002  -0.00030  -0.00093  -0.18792   0.01580
  26        3PY         0.08530   0.19044  -0.02589  -0.00047   0.00123
  27        3PZ         0.00821   0.02792   0.15190  -0.00046   0.00020
  28        4S          0.25975  -0.05473   0.00097  -0.00132   0.00455
  29        4PX        -0.00009  -0.00095  -0.00068  -0.11816   0.00851
  30        4PY         0.03751   0.12127  -0.01702  -0.00010  -0.00164
  31        4PZ         0.00467   0.01787   0.09662  -0.00012   0.00066
  32        5D 0        0.00315  -0.00042   0.00167  -0.00011   0.00029
  33        5D+1        0.00000  -0.00006   0.00006   0.00130   0.01985
  34        5D-1        0.00159   0.00090  -0.01178   0.00025   0.00026
  35        5D+2       -0.00686   0.00432  -0.00224   0.00007  -0.00010
  36        5D-2        0.00002   0.00003  -0.00001   0.00051   0.00111
  37 3   C  1S          0.03939  -0.00577   0.00087  -0.00052  -0.00049
  38        2S          0.06141  -0.00904   0.00134  -0.00083  -0.00079
  39        2PX         0.05618  -0.11073   0.02133   0.02933  -0.00295
  40        2PY         0.05094   0.05514  -0.01145   0.14056  -0.02206
  41        2PZ        -0.00111   0.02153   0.13073  -0.02032  -0.14501
  42        3S         -0.16326   0.02285  -0.00300   0.00533   0.00266
  43        3PX         0.08179  -0.15972   0.03080   0.04316  -0.00437
  44        3PY         0.07434   0.07956  -0.01648   0.20424  -0.03187
  45        3PZ        -0.00131   0.03120   0.18916  -0.02924  -0.20918
  46        4S         -0.13215   0.03979  -0.00998  -0.02080  -0.00150
  47        4PX         0.03089  -0.08900   0.01668   0.02137  -0.00479
  48        4PY         0.03439   0.05159  -0.01110   0.12713  -0.02243
  49        4PZ        -0.00086   0.01811   0.11649  -0.01741  -0.14636
  50        5D 0       -0.00692  -0.00103   0.00550  -0.01409  -0.00424
  51        5D+1        0.00014   0.00298   0.00385   0.00160   0.00331
  52        5D-1       -0.00065  -0.00440  -0.01009  -0.00204   0.01723
  53        5D+2        0.00336  -0.00685   0.00208   0.00589  -0.00287
  54        5D-2        0.01087  -0.00842   0.00381   0.00229  -0.00166
  55 4   H  1S          0.10950   0.08558  -0.00493  -0.00043   0.00074
  56        2S          0.12925   0.10788  -0.00894  -0.00020   0.00086
  57        3S          0.02895   0.03905  -0.00396  -0.00009   0.00108
  58        4PX        -0.00001  -0.00008  -0.00007  -0.00727   0.00027
  59        4PY        -0.01500  -0.00868  -0.00003  -0.00001   0.00001
  60        4PZ        -0.00160  -0.00072   0.00583   0.00000   0.00000
  61 5   H  1S         -0.04469   0.10040  -0.03431   0.05689   0.00719
  62        2S         -0.05618   0.13092  -0.04543   0.07864   0.01073
  63        3S         -0.01390   0.05480  -0.02199   0.04042   0.00516
  64        4PX        -0.00249   0.00666  -0.00299   0.00863   0.00075
  65        4PY         0.00726  -0.00621   0.00247   0.00318  -0.00205
  66        4PZ        -0.00094   0.00345   0.00740  -0.00012  -0.00919
  67 6   H  1S         -0.06248  -0.03424  -0.07393  -0.07337   0.10691
  68        2S         -0.07655  -0.04494  -0.10003  -0.09733   0.14796
  69        3S         -0.01867  -0.02069  -0.05000  -0.04799   0.08032
  70        4PX         0.00226  -0.00725   0.00008   0.00185  -0.00041
  71        4PY        -0.00467  -0.00064  -0.00877   0.00098   0.00942
  72        4PZ        -0.00742  -0.00281   0.00014  -0.00905   0.00196
  73 7   H  1S         -0.05904   0.01231   0.09931  -0.07654  -0.10585
  74        2S         -0.07318   0.01659   0.13578  -0.10427  -0.14689
  75        3S         -0.01802   0.00742   0.06781  -0.05271  -0.08120
  76        4PX         0.00172  -0.00638   0.00387   0.00073  -0.00111
  77        4PY        -0.00198   0.00411   0.00643   0.00345  -0.00817
  78        4PZ         0.00856  -0.00014  -0.00528   0.00859   0.00400
  79 8   H  1S         -0.04548   0.09557  -0.04997  -0.05532  -0.02839
  80        2S         -0.05724   0.12447  -0.06542  -0.07653  -0.04047
  81        3S         -0.01408   0.05242  -0.03069  -0.03918  -0.02240
  82        4PX         0.00253  -0.00564   0.00483   0.00830   0.00304
  83        4PY         0.00710  -0.00518   0.00370  -0.00357   0.00365
  84        4PZ        -0.00206   0.00567   0.00589  -0.00120   0.00823
  85 9   H  1S         -0.05750   0.02558   0.10164   0.06301   0.11474
  86        2S         -0.07163   0.03332   0.13729   0.08603   0.16092
  87        3S         -0.01746   0.01484   0.06861   0.04348   0.08905
  88        4PX        -0.00108   0.00596  -0.00478   0.00024  -0.00254
  89        4PY        -0.00059   0.00458   0.00445  -0.00558   0.00657
  90        4PZ         0.00880  -0.00201  -0.00615  -0.00728  -0.00591
  91 10  H  1S         -0.06337  -0.04224  -0.05959   0.08492  -0.09361
  92        2S         -0.07751  -0.05623  -0.08233   0.11271  -0.12814
  93        3S         -0.01905  -0.02533  -0.04126   0.05557  -0.06916
  94        4PX        -0.00279   0.00702  -0.00053   0.00250  -0.00133
  95        4PY        -0.00581  -0.00232  -0.00832   0.00153  -0.00944
  96        4PZ        -0.00638  -0.00301   0.00255   0.00894   0.00089
                          11        12        13        14        15
                           O         O         O         V         V
     Eigenvalues --    -0.35740  -0.35042  -0.18574   0.04764   0.07585
   1 1   C  1S          0.01001   0.00915  -0.00281  -0.03698  -0.01027
   2        2S          0.01578   0.01444  -0.00448  -0.05766  -0.01621
   3        2PX         0.15003   0.01968  -0.00485   0.04163  -0.03664
   4        2PY         0.02989  -0.12007   0.00738  -0.03117  -0.06839
   5        2PZ        -0.00122  -0.00590  -0.04122   0.00586   0.00400
   6        3S         -0.04659  -0.04344   0.01304   0.10985   0.03220
   7        3PX         0.21466   0.02866  -0.00801   0.04566  -0.04736
   8        3PY         0.04244  -0.16943   0.01053  -0.03443  -0.06123
   9        3PZ        -0.00217  -0.00834  -0.05597   0.00540   0.00357
  10        4S         -0.04928  -0.03448   0.01518   1.24116   0.29878
  11        4PX         0.15717   0.00823   0.00450   0.22853  -0.19536
  12        4PY         0.03778  -0.12940   0.02024  -0.20306  -0.34382
  13        4PZ        -0.00268  -0.00631  -0.06215   0.03516   0.07301
  14        5D 0       -0.00158   0.00681  -0.01046  -0.00147  -0.00913
  15        5D+1       -0.00473   0.00277  -0.02519   0.00161  -0.00254
  16        5D-1       -0.00651   0.00839   0.02213   0.00146  -0.00960
  17        5D+2        0.00623  -0.01751  -0.00011  -0.00281   0.01186
  18        5D-2        0.01800  -0.00600   0.00437  -0.00790   0.01107
  19 2   C  1S         -0.00024   0.00402   0.00750  -0.01277   0.03099
  20        2S         -0.00038   0.00640   0.01231  -0.01980   0.04895
  21        2PX        -0.14009  -0.00302   0.00010   0.00004   0.00045
  22        2PY        -0.00293   0.14656  -0.01871   0.04577  -0.08319
  23        2PZ        -0.00048   0.00880   0.26250   0.00028  -0.01580
  24        3S          0.00102  -0.02303  -0.03565   0.05431  -0.10468
  25        3PX        -0.20505  -0.00445   0.00014  -0.00010   0.00173
  26        3PY        -0.00415   0.21120  -0.02799   0.05631  -0.07092
  27        3PZ        -0.00059   0.01163   0.39103  -0.00404  -0.01637
  28        4S          0.00273  -0.00636  -0.08020   0.39549  -0.98374
  29        4PX        -0.12129  -0.00301  -0.00087   0.00054  -0.00104
  30        4PY        -0.00399   0.16246  -0.05093   0.26773  -0.45454
  31        4PZ        -0.00083   0.01121   0.51789   0.01643  -0.11644
  32        5D 0        0.00017   0.00128  -0.00401  -0.00461  -0.01262
  33        5D+1       -0.00222   0.00001  -0.00016   0.00010   0.00033
  34        5D-1       -0.00040   0.00587   0.00613   0.00008   0.00041
  35        5D+2        0.00071  -0.03228   0.00068   0.00278  -0.02806
  36        5D-2        0.02486   0.00062   0.00021  -0.00001   0.00018
  37 3   C  1S         -0.01018   0.00895  -0.00273  -0.03683  -0.01173
  38        2S         -0.01605   0.01412  -0.00434  -0.05741  -0.01848
  39        2PX         0.15115  -0.01341   0.00578  -0.04114   0.03748
  40        2PY        -0.02545  -0.12011   0.00696  -0.03140  -0.07322
  41        2PZ         0.00055  -0.00428  -0.04135   0.00422  -0.00673
  42        3S          0.04771  -0.04260   0.01200   0.10898   0.03553
  43        3PX         0.21625  -0.01981   0.00866  -0.04556   0.04678
  44        3PY        -0.03630  -0.16953   0.01002  -0.03413  -0.06684
  45        3PZ         0.00097  -0.00584  -0.05635   0.00406  -0.00732
  46        4S          0.04724  -0.03312   0.01760   1.23841   0.34903
  47        4PX         0.15676  -0.00021   0.00224  -0.22130   0.20924
  48        4PY        -0.03286  -0.13218   0.01028  -0.21168  -0.38143
  49        4PZ         0.00227  -0.00505  -0.05892   0.01763  -0.00136
  50        5D 0        0.00399   0.01013  -0.00698  -0.00044  -0.01199
  51        5D+1       -0.00244  -0.00108   0.02334  -0.00090   0.00079
  52        5D-1        0.00274   0.00533   0.02548   0.00068  -0.00709
  53        5D+2       -0.00469  -0.01668   0.00057  -0.00267   0.01073
  54        5D-2        0.01917   0.00829  -0.00264   0.00846  -0.01241
  55 4   H  1S         -0.00277   0.13329   0.01027   0.00936   0.04264
  56        2S         -0.00402   0.18377   0.02575   0.04203   0.07164
  57        3S         -0.00217   0.10943   0.02403  -0.49582   1.34298
  58        4PX        -0.00720  -0.00006   0.00014   0.00006   0.00007
  59        4PY         0.00018  -0.00698  -0.00343  -0.00903   0.02644
  60        4PZ        -0.00003  -0.00080   0.02017  -0.00261   0.00139
  61 5   H  1S         -0.11596  -0.07146   0.01459  -0.02031   0.01631
  62        2S         -0.16496  -0.09906   0.02600  -0.05548   0.02213
  63        3S         -0.10110  -0.06181   0.02071  -0.54829   0.59248
  64        4PX        -0.00282  -0.00724   0.00042   0.00507  -0.00984
  65        4PY         0.00810  -0.00169  -0.00033  -0.00548   0.01044
  66        4PZ        -0.00212  -0.00133  -0.00279   0.00084  -0.00257
  67 6   H  1S          0.02250   0.07866   0.05333   0.00039  -0.01706
  68        2S          0.02925   0.11415   0.09799  -0.03056  -0.00326
  69        3S          0.01633   0.07672   0.10505  -0.54842  -0.71538
  70        4PX         0.00877   0.00043  -0.00118  -0.00478   0.00326
  71        4PY         0.00002  -0.00073   0.00125   0.00468   0.01048
  72        4PZ         0.00171   0.00716  -0.00061   0.00467   0.01319
  73 7   H  1S          0.00629   0.04387  -0.07263  -0.00036  -0.00856
  74        2S          0.00598   0.06290  -0.13413  -0.01843  -0.01374
  75        3S          0.00327   0.04185  -0.15099  -0.60309  -0.41531
  76        4PX         0.00905  -0.00015   0.00233  -0.00416   0.00363
  77        4PY        -0.00177  -0.00517   0.00011   0.00333   0.00057
  78        4PZ         0.00012  -0.00552   0.00096  -0.00690  -0.00809
  79 8   H  1S          0.11560  -0.06253   0.02614  -0.01968   0.01538
  80        2S          0.16455  -0.08737   0.04377  -0.05591   0.02052
  81        3S          0.10060  -0.05492   0.03570  -0.55299   0.56595
  82        4PX        -0.00260   0.00671  -0.00025  -0.00478   0.00912
  83        4PY        -0.00732  -0.00272  -0.00115  -0.00520   0.00941
  84        4PZ         0.00442  -0.00242  -0.00243   0.00179  -0.00405
  85 9   H  1S          0.00572   0.02832  -0.07509  -0.00252  -0.00692
  86        2S          0.01133   0.04125  -0.13557  -0.02403  -0.02019
  87        3S          0.00768   0.02756  -0.15260  -0.61915  -0.34942
  88        4PX         0.00872   0.00035  -0.00240   0.00332  -0.00284
  89        4PY         0.00255  -0.00654   0.00090   0.00217  -0.00087
  90        4PZ        -0.00170  -0.00423   0.00103  -0.00768  -0.00647
  91 10  H  1S         -0.03626   0.08909   0.04424   0.00183  -0.01751
  92        2S         -0.04857   0.12994   0.08475  -0.02321   0.01121
  93        3S         -0.02858   0.08764   0.09210  -0.53664  -0.69123
  94        4PX         0.00853   0.00042   0.00068   0.00489  -0.00353
  95        4PY        -0.00145   0.00148   0.00164   0.00517   0.01272
  96        4PZ        -0.00267   0.00682  -0.00114   0.00419   0.01237
                          16        17        18        19        20
                           V         V         V         V         V
     Eigenvalues --     0.08107   0.10894   0.12711   0.13181   0.14145
   1 1   C  1S         -0.03931   0.00024   0.01626   0.01491  -0.00592
   2        2S         -0.06124   0.00040   0.02569   0.02348  -0.00931
   3        2PX         0.05529  -0.00198  -0.03025   0.05298  -0.04320
   4        2PY        -0.00611  -0.02264  -0.10596   0.04312  -0.07226
   5        2PZ         0.00516  -0.12659   0.05047  -0.07287  -0.09302
   6        3S          0.11641   0.00110  -0.05888  -0.05088   0.02279
   7        3PX         0.05260  -0.00028  -0.02516   0.04669  -0.03845
   8        3PY        -0.00913  -0.02400  -0.10601   0.04485  -0.07422
   9        3PZ         0.00724  -0.12274   0.04988  -0.07424  -0.09622
  10        4S          1.42671  -0.03596  -0.38747  -0.39578   0.15941
  11        4PX         0.26341  -0.01330  -0.21456   0.39899  -0.25887
  12        4PY        -0.01736  -0.16749  -0.83590   0.21852  -0.41428
  13        4PZ         0.01179  -0.79231   0.30742  -0.46905  -0.64136
  14        5D 0       -0.00303   0.00835  -0.01589   0.00806   0.00676
  15        5D+1       -0.00073  -0.00191  -0.01188   0.00790   0.00344
  16        5D-1        0.00057  -0.01045  -0.00303  -0.00468  -0.02333
  17        5D+2        0.00524   0.00474   0.01172   0.00108   0.01232
  18        5D-2        0.00060  -0.00494   0.00805  -0.01347   0.00699
  19 2   C  1S          0.00048  -0.00496  -0.04049  -0.01673  -0.00275
  20        2S          0.00075  -0.00783  -0.06554  -0.02697  -0.00414
  21        2PX        -0.03131  -0.00244  -0.00687   0.02076  -0.02283
  22        2PY        -0.00131   0.00370   0.03534   0.01098  -0.00536
  23        2PZ        -0.00037   0.03073   0.01529   0.00541   0.00046
  24        3S         -0.00186   0.01338   0.16991   0.06710   0.00068
  25        3PX        -0.06885  -0.00366  -0.01387   0.04305  -0.03608
  26        3PY        -0.00125   0.00409  -0.00807  -0.00511  -0.00297
  27        3PZ        -0.00048   0.02705   0.02801   0.00553   0.00250
  28        4S         -0.01205   0.21899   1.39875   0.61715   0.19489
  29        4PX        -0.19632   0.01107  -0.00905   0.03619  -0.15740
  30        4PY        -0.00238   0.05215   0.45532   0.11218  -0.10502
  31        4PZ         0.00009   0.32504   0.05494   0.04849  -0.00203
  32        5D 0       -0.00028   0.00349   0.00595   0.00271   0.00289
  33        5D+1        0.00125   0.00035   0.00523  -0.01226  -0.02334
  34        5D-1       -0.00006   0.00769  -0.00867   0.00005  -0.00045
  35        5D+2       -0.00044  -0.00277  -0.01424  -0.00557  -0.00242
  36        5D-2       -0.00204  -0.00212  -0.00377   0.01110  -0.01371
  37 3   C  1S          0.03917   0.00198   0.02110  -0.00004   0.00834
  38        2S          0.06101   0.00320   0.03332  -0.00002   0.01307
  39        2PX         0.05642  -0.01244  -0.00834   0.06006  -0.04302
  40        2PY         0.00497  -0.00636  -0.05663  -0.11216   0.04710
  41        2PZ        -0.00540  -0.12715  -0.01872   0.06606   0.10910
  42        3S         -0.11565  -0.00905  -0.07544   0.00060  -0.02517
  43        3PX         0.05419  -0.01723  -0.00840   0.04947  -0.04642
  44        3PY         0.00889  -0.00913  -0.05566  -0.11422   0.04580
  45        3PZ        -0.00670  -0.12338  -0.02022   0.06807   0.11195
  46        4S         -1.42295  -0.04110  -0.50215  -0.03125  -0.35514
  47        4PX         0.27214  -0.06596  -0.05286   0.38362  -0.37389
  48        4PY         0.00486  -0.02872  -0.51109  -0.75032   0.31337
  49        4PZ        -0.01953  -0.79708  -0.13248   0.40572   0.71470
  50        5D 0        0.00280   0.00593  -0.00879  -0.01682  -0.00165
  51        5D+1       -0.00039   0.00240   0.00382   0.00699   0.00536
  52        5D-1       -0.00132  -0.01265  -0.00541   0.00632   0.02520
  53        5D+2       -0.00497   0.00281   0.00947   0.00895  -0.00558
  54        5D-2        0.00020   0.00586   0.00076  -0.01562   0.01056
  55 4   H  1S          0.00073   0.00377  -0.00368  -0.00151  -0.00117
  56        2S         -0.00102  -0.01930   0.01639   0.01802  -0.00245
  57        3S          0.01544  -0.14564  -1.33818  -0.50103   0.03683
  58        4PX        -0.01096  -0.00129   0.00014  -0.00214  -0.00413
  59        4PY         0.00073  -0.00064  -0.01622  -0.00670   0.00124
  60        4PZ         0.00011   0.00365  -0.00536  -0.00064   0.00013
  61 5   H  1S         -0.00334  -0.00348   0.01504   0.02567  -0.01408
  62        2S         -0.04668  -0.00719   0.00527   0.00424  -0.05086
  63        3S          0.88189  -0.21789   0.76373   1.59098  -0.50427
  64        4PX        -0.00900   0.00215  -0.01472  -0.02646   0.00572
  65        4PY         0.01034  -0.00510   0.00002   0.01498  -0.00552
  66        4PZ        -0.00248  -0.00519  -0.00371  -0.00121   0.00651
  67 6   H  1S          0.01691  -0.00060  -0.00869  -0.00202   0.03601
  68        2S          0.03214   0.03415  -0.08307  -0.00090   0.04076
  69        3S          0.54913  -0.98109  -0.33766  -0.35800   1.59188
  70        4PX        -0.00359  -0.00562  -0.00535   0.00126  -0.01039
  71        4PY        -0.00352   0.01773   0.00187   0.00038  -0.01934
  72        4PZ        -0.00435   0.01292   0.00401   0.00783  -0.01706
  73 7   H  1S          0.01720   0.00511   0.00004  -0.02393  -0.02088
  74        2S          0.02312  -0.04395  -0.03464  -0.02173  -0.02842
  75        3S          0.63467   1.23809   0.14868  -1.25023  -0.85460
  76        4PX        -0.00442   0.00010  -0.00335   0.00719   0.00235
  77        4PY        -0.00452  -0.01241  -0.00465   0.00897   0.01266
  78        4PZ         0.00785   0.02227   0.00071  -0.02061  -0.01220
  79 8   H  1S          0.00341   0.00193   0.02913  -0.01202   0.00852
  80        2S          0.04578   0.03093   0.02339  -0.02010  -0.01847
  81        3S         -0.85064  -0.21577   1.58390  -0.80536   0.53264
  82        4PX        -0.00851  -0.00369   0.02653  -0.01049   0.00915
  83        4PY        -0.00929  -0.00613   0.00893  -0.01234   0.00460
  84        4PZ         0.00471  -0.00404  -0.00713   0.00187  -0.00858
  85 9   H  1S         -0.01557   0.00108  -0.01509   0.02033   0.02545
  86        2S         -0.01568  -0.05075  -0.04121  -0.00217   0.08054
  87        3S         -0.65964   1.22095  -0.70028   1.09051   0.80515
  88        4PX        -0.00500  -0.00013  -0.00260   0.01147   0.00390
  89        4PY         0.00363  -0.00985   0.00006  -0.00683  -0.00845
  90        4PZ        -0.00911   0.02296  -0.01277   0.01730   0.01052
  91 10  H  1S         -0.01869  -0.00515  -0.00875  -0.00343  -0.03456
  92        2S         -0.03810   0.01739  -0.08227  -0.03743  -0.01922
  93        3S         -0.55930  -1.01698  -0.43524   0.10543  -1.58306
  94        4PX        -0.00347   0.00556   0.00343   0.00303  -0.00687
  95        4PY         0.00399   0.01877   0.00072   0.00045   0.02457
  96        4PZ         0.00361   0.01127   0.00696  -0.00387   0.01390
                          21        22        23        24        25
                           V         V         V         V         V
     Eigenvalues --     0.21396   0.26681   0.27309   0.29664   0.34041
   1 1   C  1S          0.01265   0.00857  -0.01211  -0.00222   0.01631
   2        2S          0.01805   0.01224  -0.01960  -0.00454   0.03117
   3        2PX         0.06725   0.06115  -0.08130  -0.00790   0.08130
   4        2PY        -0.02213  -0.06494   0.02564  -0.00301  -0.02137
   5        2PZ         0.01134  -0.00245   0.00249  -0.00236  -0.00776
   6        3S          0.04019   0.02848   0.08034   0.03777  -0.16543
   7        3PX         0.06654   0.07447  -0.03358  -0.03423   0.26307
   8        3PY        -0.01564  -0.04114   0.04896   0.00234  -0.06768
   9        3PZ         0.00616   0.00050   0.00332  -0.03535  -0.02754
  10        4S         -1.69297  -1.48045  -0.06332  -0.17865  -0.64579
  11        4PX         1.83102   1.23630  -0.28872   0.03959  -0.11602
  12        4PY        -0.04444  -1.05723   1.09634  -0.54966   0.43419
  13        4PZ        -0.00818   0.14277  -0.26490  -0.76727  -0.14534
  14        5D 0       -0.00930  -0.01468   0.01730  -0.00335  -0.00184
  15        5D+1       -0.00205   0.00775  -0.01245  -0.01723   0.00194
  16        5D-1        0.00280  -0.00382   0.00582   0.00873  -0.00173
  17        5D+2        0.02084  -0.00648  -0.01636  -0.01025  -0.00504
  18        5D-2       -0.01511  -0.03641   0.02082  -0.01392   0.00052
  19 2   C  1S         -0.04197   0.00552   0.01732   0.00296  -0.00167
  20        2S         -0.06705   0.01017   0.03240   0.00568  -0.00302
  21        2PX         0.00475   0.17410  -0.05020   0.03771  -0.01490
  22        2PY        -0.12884   0.02460   0.07621   0.00494   0.00442
  23        2PZ         0.00001   0.00315   0.01695  -0.00145  -0.01688
  24        3S          0.10730  -0.05709  -0.19961  -0.03849   0.01683
  25        3PX         0.00525   0.23585  -0.06893   0.10953  -0.27252
  26        3PY        -0.13813   0.05469   0.18199   0.01631   0.01001
  27        3PZ        -0.00702   0.00754   0.02755  -0.00284  -0.04456
  28        4S          3.02195  -0.06476   0.03543   0.02403  -0.00864
  29        4PX         0.07943   2.57079  -0.71566   0.26249   1.04152
  30        4PY        -2.18265  -0.07487  -0.37489  -0.01141  -0.02195
  31        4PZ         0.11807   0.00759   0.16360  -0.00093  -0.06469
  32        5D 0        0.01271   0.00090   0.00222   0.00226  -0.00064
  33        5D+1        0.00379  -0.00166   0.00522  -0.02173  -0.01354
  34        5D-1        0.00728  -0.00039   0.00440   0.00190   0.00606
  35        5D+2        0.00153   0.01128   0.03982  -0.00017   0.00090
  36        5D-2        0.00175   0.04001  -0.01099  -0.00525   0.05259
  37 3   C  1S          0.01176  -0.01377  -0.00593   0.00111  -0.01614
  38        2S          0.01670  -0.02071  -0.01043   0.00289  -0.03075
  39        2PX        -0.06216   0.09725   0.03595  -0.00399   0.08305
  40        2PY        -0.02171   0.06543  -0.01607  -0.00091   0.01787
  41        2PZ        -0.00529   0.00211  -0.01111   0.00408   0.00990
  42        3S          0.03980   0.00893   0.08237  -0.01858   0.16205
  43        3PX        -0.06204   0.07848  -0.01330  -0.03784   0.26671
  44        3PY        -0.01534   0.05512   0.01469  -0.02064   0.06766
  45        3PZ        -0.01007   0.00244  -0.01345   0.04111   0.03700
  46        4S         -1.57870   1.31958  -0.80356   0.04013   0.63753
  47        4PX        -1.76205   1.27971  -0.41922   0.12892  -0.13011
  48        4PY         0.01970   1.48469   0.37089   0.57621  -0.38531
  49        4PZ        -0.05792  -0.18261  -0.19544   0.77264   0.46566
  50        5D 0       -0.00794   0.02169   0.00623   0.00120  -0.00092
  51        5D+1       -0.00315   0.01014   0.00257  -0.01699  -0.00998
  52        5D-1       -0.00108   0.00626   0.00091  -0.00971  -0.00328
  53        5D+2        0.02244  -0.00240  -0.01599   0.00542   0.00518
  54        5D-2        0.01150  -0.04373   0.00093  -0.01718  -0.00015
  55 4   H  1S         -0.03500  -0.01577  -0.05425   0.00354  -0.00570
  56        2S         -0.02502  -0.03295  -0.15175  -0.00205  -0.00180
  57        3S          1.30524  -0.06113  -0.10613  -0.00018  -0.00699
  58        4PX         0.00068   0.01381  -0.00427  -0.02194   0.03881
  59        4PY         0.01389  -0.00395  -0.00826   0.00300  -0.00257
  60        4PZ         0.00659  -0.00080  -0.00074  -0.00044  -0.00244
  61 5   H  1S         -0.02123   0.02394  -0.06885   0.00167   0.04496
  62        2S         -0.39264  -0.10850  -0.69337  -0.06504   0.29297
  63        3S         -0.45284   0.14176   0.60868  -0.02773  -0.11850
  64        4PX        -0.01652  -0.01853  -0.01955  -0.00629  -0.00611
  65        4PY        -0.00634   0.01298   0.02564   0.00891  -0.01689
  66        4PZ         0.00071  -0.00578  -0.00547   0.01941   0.01477
  67 6   H  1S         -0.01058   0.02072   0.03502   0.05945  -0.01176
  68        2S          0.09644   0.18158   0.46083   0.97911  -0.14401
  69        3S          0.05141   0.55911  -0.41345  -0.43984   0.06292
  70        4PX        -0.00533   0.00826  -0.00003   0.02170   0.01364
  71        4PY         0.01262   0.00523   0.02724   0.02742  -0.00704
  72        4PZ         0.00665  -0.01480   0.01416   0.03228   0.01109
  73 7   H  1S         -0.00169   0.02676   0.03305  -0.04357  -0.05906
  74        2S          0.09943   0.35348   0.45008  -0.56610  -0.84510
  75        3S          0.08128   0.24095  -0.12257   0.43986   0.36950
  76        4PX        -0.00874   0.01746  -0.00054  -0.01032  -0.00195
  77        4PY         0.00754   0.01395   0.01895  -0.00447  -0.01597
  78        4PZ        -0.00838   0.00491  -0.01468   0.02548   0.02244
  79 8   H  1S         -0.02462  -0.05336  -0.04525  -0.00512  -0.04659
  80        2S         -0.39359  -0.24286  -0.63304   0.03769  -0.31096
  81        3S         -0.42390   0.20883   0.55485   0.05681   0.15396
  82        4PX         0.01524  -0.00485   0.02394  -0.00768  -0.00401
  83        4PY        -0.00716   0.00273   0.02674  -0.00862   0.01894
  84        4PZ        -0.00134   0.00386  -0.01361  -0.01841  -0.00607
  85 9   H  1S         -0.00558  -0.01515   0.03201   0.04539   0.03831
  86        2S          0.10022  -0.15491   0.50272   0.68820   0.54144
  87        3S         -0.21422  -0.21138  -0.02242  -0.45312  -0.27182
  88        4PX         0.00236   0.01257  -0.01474  -0.01864   0.00226
  89        4PY         0.00716  -0.00411   0.02214   0.00175   0.01204
  90        4PZ        -0.01417  -0.00879  -0.01126  -0.03353  -0.01222
  91 10  H  1S         -0.00732   0.01022   0.05013  -0.05838   0.03272
  92        2S          0.08202   0.14470   0.56395  -0.89822   0.47435
  93        3S          0.31634  -0.73003   0.04758   0.42801  -0.18566
  94        4PX         0.01243   0.01072   0.00083   0.01603   0.00892
  95        4PY         0.01068   0.01314   0.02685  -0.02757   0.01424
  96        4PZ         0.00217   0.01747   0.00129  -0.02374   0.00271
                          26        27        28        29        30
                           V         V         V         V         V
     Eigenvalues --     0.35570   0.41121   0.41982   0.42747   0.48360
   1 1   C  1S         -0.00366  -0.03153  -0.01305  -0.01708  -0.00676
   2        2S         -0.00691  -0.05713  -0.02421  -0.03028  -0.01244
   3        2PX        -0.01124  -0.12182  -0.02589   0.02821  -0.00819
   4        2PY         0.00595   0.08371   0.04393   0.02798   0.00721
   5        2PZ         0.03527  -0.01853  -0.01807  -0.01431  -0.00872
   6        3S          0.03290   0.24870   0.09935   0.03251   0.04011
   7        3PX        -0.06393  -0.33458  -0.11983   0.02498  -0.03463
   8        3PY         0.04828   0.23165   0.15988   0.12907   0.05653
   9        3PZ         0.08606  -0.06818  -0.01486  -0.03217  -0.08851
  10        4S          0.25440   0.76738   0.54611   2.70006   0.50798
  11        4PX         0.03179   0.49745  -0.51409   0.13350  -0.33039
  12        4PY        -0.07675   0.28852  -1.43195   0.93673  -0.74129
  13        4PZ         1.12135   0.17118  -0.06027  -0.23282  -0.74521
  14        5D 0       -0.00747  -0.00043   0.00497   0.00251  -0.00095
  15        5D+1        0.02271   0.01948  -0.01723  -0.00898   0.00410
  16        5D-1       -0.01454  -0.00776   0.00767   0.00684   0.00047
  17        5D+2       -0.00580   0.00167  -0.05464   0.03329  -0.03817
  18        5D-2       -0.00831   0.02401  -0.04287   0.00071  -0.02364
  19 2   C  1S         -0.01345   0.02882   0.00865  -0.00529  -0.00243
  20        2S         -0.02558   0.04251   0.00713  -0.01104  -0.00746
  21        2PX        -0.00579   0.00148   0.00169   0.00642   0.00745
  22        2PY         0.01945  -0.01188   0.00914   0.00855   0.04636
  23        2PZ        -0.09611  -0.04795   0.11622   0.04495  -0.17860
  24        3S          0.14454   0.10308   0.11105   0.05836   0.05275
  25        3PX         0.02531   0.04815  -0.08257   0.23796   0.00719
  26        3PY         0.04568  -0.25166  -0.08310   0.02388   0.11855
  27        3PZ        -0.21250  -0.16998   0.42229   0.15795  -0.71931
  28        4S         -0.00267  -1.08216  -0.40233  -0.02883   0.19020
  29        4PX        -0.14143  -0.48779   0.94672  -2.59638   0.05865
  30        4PY         0.37611  -0.24355   2.26057   0.87056   1.28641
  31        4PZ        -0.50794  -0.02444  -0.43801  -0.12236   1.76333
  32        5D 0       -0.00060  -0.08555  -0.03446   0.00321  -0.00687
  33        5D+1       -0.00093  -0.00212  -0.00764  -0.00040  -0.00159
  34        5D-1       -0.00079   0.01391  -0.03022  -0.00396   0.01118
  35        5D+2        0.00833   0.06290   0.02120  -0.00302   0.01423
  36        5D-2       -0.00945  -0.00708   0.01192  -0.02480   0.00252
  37 3   C  1S          0.00223  -0.02518  -0.02565   0.01497  -0.00870
  38        2S          0.00434  -0.04571  -0.04672   0.02632  -0.01607
  39        2PX        -0.02495   0.11632   0.03167   0.00030   0.01777
  40        2PY        -0.00002   0.08405   0.05839  -0.02479   0.01416
  41        2PZ         0.03518  -0.00897  -0.00678   0.00366  -0.00671
  42        3S         -0.05072   0.22110   0.15011  -0.05129   0.06395
  43        3PX        -0.05741   0.30064   0.16212   0.00003   0.06897
  44        3PY         0.03367   0.21949   0.21696  -0.07526   0.07194
  45        3PZ         0.07896  -0.03857   0.00978   0.03244  -0.08272
  46        4S          0.28043  -0.03688   2.10285  -1.78712   0.52976
  47        4PX         0.01557  -0.30124   0.20826   0.57181   0.25757
  48        4PY        -0.04223  -0.21022  -0.47435  -1.62471  -0.62695
  49        4PZ         1.08286   0.24316  -0.15457   0.08922  -0.76772
  50        5D 0       -0.00084   0.00200   0.00396  -0.00285  -0.00050
  51        5D+1       -0.02278  -0.01944   0.02873   0.00878  -0.00126
  52        5D-1       -0.01081  -0.00446   0.00681   0.00255   0.00161
  53        5D+2       -0.00909  -0.01875  -0.02031  -0.05660  -0.03552
  54        5D-2        0.01493  -0.01302   0.02487   0.03495   0.01789
  55 4   H  1S         -0.05792   0.08929  -0.03223  -0.03428  -0.03131
  56        2S         -0.43002   1.23755  -1.05927  -0.61488  -0.93843
  57        3S          0.06328  -0.44551  -0.29380  -0.02809  -0.13531
  58        4PX        -0.00804   0.00261  -0.00376   0.01280   0.00171
  59        4PY        -0.00043  -0.04815   0.04058   0.01816   0.03025
  60        4PZ        -0.01644  -0.01294  -0.00336   0.00128   0.01353
  61 5   H  1S         -0.02614  -0.01557  -0.06407   0.03937  -0.01815
  62        2S         -0.15047  -0.13538  -0.61116   1.31112   0.00291
  63        3S          0.14850   0.11232   0.36246  -0.15135   0.23995
  64        4PX         0.00383   0.01292   0.01888   0.08648   0.02383
  65        4PY         0.01125   0.01009   0.01467   0.00824   0.00676
  66        4PZ         0.02665   0.00712  -0.01570  -0.00105  -0.01986
  67 6   H  1S          0.06548   0.00653   0.00024   0.00663  -0.01489
  68        2S          0.72681  -0.01141  -0.48242  -0.17768  -0.58132
  69        3S         -0.20975   0.10168  -0.26331  -0.07958   0.03369
  70        4PX        -0.00901   0.00239  -0.02633  -0.00419  -0.03453
  71        4PY         0.00424  -0.00027  -0.01494  -0.04318  -0.03788
  72        4PZ         0.02803  -0.00290  -0.00926   0.01699  -0.00037
  73 7   H  1S         -0.04978   0.00771  -0.00358  -0.00832   0.00756
  74        2S         -0.79888  -0.20968  -0.28511  -0.13203   0.22025
  75        3S         -0.03800   0.04338  -0.08784   0.12968  -0.30224
  76        4PX        -0.01409  -0.01134  -0.01406   0.00795   0.03915
  77        4PY        -0.00502  -0.00511  -0.01377  -0.04217   0.00197
  78        4PZ         0.02958   0.01405  -0.00403  -0.00755  -0.01886
  79 8   H  1S          0.00349  -0.02880  -0.03637  -0.06968  -0.01992
  80        2S          0.16882  -0.58221   0.24164  -1.33139  -0.02460
  81        3S          0.00333   0.17574   0.22837   0.35302   0.31736
  82        4PX        -0.00854   0.01661  -0.07319   0.05398  -0.01888
  83        4PY         0.00856   0.00918   0.01496   0.00064  -0.00112
  84        4PZ         0.02940   0.00214  -0.01345  -0.00776  -0.01981
  85 9   H  1S         -0.06956   0.01004   0.00262   0.00015   0.00778
  86        2S         -0.97037  -0.21100  -0.18247  -0.12984   0.24391
  87        3S          0.15957  -0.01071   0.02533  -0.10487  -0.28426
  88        4PX         0.00902   0.01648   0.00876   0.02512  -0.04087
  89        4PY        -0.00892   0.00284  -0.03104   0.02324   0.00441
  90        4PZ         0.02744   0.01230  -0.00171   0.00239  -0.01333
  91 10  H  1S          0.05011  -0.00312   0.00291   0.00145  -0.01253
  92        2S          0.60440  -0.00844  -0.58322  -0.04581  -0.59610
  93        3S         -0.13226   0.09863  -0.30318  -0.25390  -0.07609
  94        4PX         0.00054  -0.00778   0.02803   0.00804   0.03350
  95        4PY         0.00398   0.01345  -0.04000   0.02187  -0.03757
  96        4PZ         0.03777  -0.00442  -0.00083  -0.01549  -0.00155
                          31        32        33        34        35
                           V         V         V         V         V
     Eigenvalues --     0.55225   0.56164   0.57710   0.59529   0.59853
   1 1   C  1S         -0.05313   0.05343  -0.00887  -0.02272  -0.01924
   2        2S         -0.09515   0.09557  -0.01594  -0.04213  -0.03479
   3        2PX         0.01677   0.01372  -0.00038  -0.00203   0.14051
   4        2PY        -0.06231   0.07064  -0.07914   0.11774   0.15498
   5        2PZ         0.07424  -0.02065  -0.18074   0.04325  -0.12049
   6        3S          0.42756  -0.43114   0.05978   0.26969   0.16583
   7        3PX         0.15532  -0.06114  -0.01673   0.08960   0.46962
   8        3PY        -0.25659   0.31830  -0.25974   0.37393   0.48382
   9        3PZ         0.24396  -0.07604  -0.60945   0.15356  -0.42513
  10        4S          0.15487   0.24065   0.23134  -0.94891  -0.19384
  11        4PX         0.07412  -0.01830   0.15453  -0.32620  -0.84824
  12        4PY         0.45119  -0.23903   0.65524  -1.29925  -1.08513
  13        4PZ        -0.47709   0.10987   1.45582  -0.16918   0.94552
  14        5D 0        0.00056  -0.00840   0.00788   0.01899   0.02945
  15        5D+1       -0.01395   0.01374   0.02343  -0.00599   0.04143
  16        5D-1        0.01191   0.00400  -0.04781   0.02164   0.00053
  17        5D+2        0.00103   0.00487   0.02262  -0.06272   0.00144
  18        5D-2        0.03235  -0.03273   0.00151  -0.01823  -0.01578
  19 2   C  1S          0.04110   0.00006  -0.00418   0.00298  -0.00481
  20        2S          0.07731   0.00013  -0.00820   0.00541  -0.00829
  21        2PX        -0.00480   0.16363   0.01292  -0.08431  -0.09434
  22        2PY         0.06038  -0.00682   0.03832   0.02042  -0.07999
  23        2PZ        -0.01806  -0.00102   0.04266   0.00582  -0.00950
  24        3S         -0.47778  -0.00047   0.07457  -0.03897   0.06303
  25        3PX        -0.00642   0.46825   0.02062  -0.15237  -0.20439
  26        3PY         0.11617  -0.01675   0.08669   0.02346  -0.16131
  27        3PZ        -0.02494  -0.00663   0.06271   0.01528  -0.05320
  28        4S         -0.07830  -0.04158  -0.57736   0.44134  -1.02905
  29        4PX         0.00868  -0.71182  -0.09379   0.87464   0.93071
  30        4PY        -0.39051   0.03453  -0.23956  -0.07368   0.32710
  31        4PZ         0.11784   0.00999  -0.63646  -0.14516   0.00495
  32        5D 0       -0.01432   0.00029   0.00579  -0.01411   0.03142
  33        5D+1        0.00752  -0.01152  -0.00151   0.03135  -0.03477
  34        5D-1       -0.00825   0.00286   0.04365  -0.00293   0.01503
  35        5D+2       -0.00716  -0.00359   0.00794  -0.00176  -0.00040
  36        5D-2        0.00142   0.05684  -0.00151  -0.00758  -0.02719
  37 3   C  1S         -0.05100  -0.05169  -0.01867   0.02655   0.01757
  38        2S         -0.09136  -0.09228  -0.03370   0.04868   0.03267
  39        2PX        -0.00617   0.00551  -0.03540   0.10830  -0.12664
  40        2PY        -0.08939  -0.06789  -0.01733  -0.17513  -0.01682
  41        2PZ         0.04764   0.01407  -0.18363  -0.11407   0.07689
  42        3S          0.41348   0.40778   0.14946  -0.26931  -0.22086
  43        3PX        -0.10964  -0.08144  -0.13965   0.41442  -0.30191
  44        3PY        -0.34307  -0.31017  -0.05774  -0.57189  -0.02927
  45        3PZ         0.15302   0.05719  -0.62087  -0.40096   0.26169
  46        4S          0.14148  -0.16456   0.09675   0.56762   1.10851
  47        4PX        -0.18476   0.02932   0.21526  -0.86987   0.54409
  48        4PY         0.62937   0.24498   0.12031   1.50831   0.70418
  49        4PZ        -0.30427  -0.08596   1.51054   0.88145  -0.62926
  50        5D 0       -0.00201   0.00572   0.01144  -0.02433  -0.02475
  51        5D+1        0.00534   0.00770  -0.02403  -0.00720   0.01440
  52        5D-1        0.00815   0.00087  -0.04486  -0.04236   0.02192
  53        5D+2        0.00940  -0.00044  -0.00271   0.03940   0.05715
  54        5D-2       -0.03564  -0.03503   0.00856  -0.03151   0.00856
  55 4   H  1S          0.01812   0.00267  -0.02350  -0.00817   0.02820
  56        2S          0.26315   0.01919   0.04383  -0.12538   0.38647
  57        3S         -0.23860  -0.03253   0.11499   0.11214  -0.43102
  58        4PX        -0.00296  -0.00914   0.00975  -0.05471  -0.02986
  59        4PY         0.00282   0.00231  -0.03345   0.00210   0.00116
  60        4PZ         0.00543  -0.00015   0.01324  -0.00155   0.00214
  61 5   H  1S         -0.03022  -0.02853  -0.03092   0.07304  -0.01391
  62        2S         -0.55225  -0.33244  -0.26614   0.29709  -0.42724
  63        3S         -0.12052  -0.21079   0.37473  -1.42820   0.19364
  64        4PX        -0.01312   0.02727   0.01426  -0.07114  -0.04088
  65        4PY        -0.02264  -0.00450  -0.01319   0.02111  -0.02203
  66        4PZ         0.00765  -0.00035  -0.00362  -0.01687   0.00506
  67 6   H  1S         -0.06703  -0.06672  -0.05749  -0.04518   0.01629
  68        2S         -0.58969  -0.69393  -0.31263  -0.04880   0.17271
  69        3S          0.37981   0.64133   0.95337   1.38267  -0.40589
  70        4PX         0.01407  -0.00258   0.01526   0.02317  -0.01599
  71        4PY         0.02572   0.01622   0.04028   0.03051   0.00072
  72        4PZ         0.02355   0.03126   0.02629   0.02012  -0.01887
  73 7   H  1S         -0.08268  -0.06950   0.02642   0.03213  -0.02612
  74        2S         -0.65410  -0.69767  -0.10455   0.25931  -0.00367
  75        3S          0.67806   0.67089  -0.90953  -0.48945   0.49249
  76        4PX         0.02060   0.00854  -0.02743   0.00896  -0.00087
  77        4PY         0.02888   0.00789  -0.02958  -0.02252   0.03020
  78        4PZ        -0.04083  -0.03269   0.01741   0.01529  -0.00874
  79 8   H  1S         -0.03626   0.02671  -0.01111  -0.03057  -0.08493
  80        2S         -0.58283   0.30864  -0.18869   0.14382  -0.53454
  81        3S         -0.01145   0.24541   0.00138   0.70001   1.59849
  82        4PX         0.00852   0.02829   0.00372  -0.06480  -0.06140
  83        4PY        -0.02147   0.00466  -0.00768   0.00256  -0.02411
  84        4PZ         0.01175   0.00118  -0.00480   0.01047   0.02140
  85 9   H  1S         -0.08682   0.06897   0.03045  -0.01839   0.02236
  86        2S         -0.70326   0.67450  -0.02296  -0.17652  -0.03304
  87        3S          0.76492  -0.62772  -0.89526   0.28004  -0.92492
  88        4PX        -0.02426   0.01734   0.02918  -0.00767   0.02816
  89        4PY         0.02499  -0.00141  -0.02949  -0.00093   0.00395
  90        4PZ        -0.04365   0.03479   0.01956  -0.01025   0.01906
  91 10  H  1S         -0.05829   0.07034  -0.06476   0.04115  -0.01152
  92        2S         -0.56620   0.73434  -0.26683   0.04634  -0.10277
  93        3S          0.21528  -0.71717   1.10740  -0.81375  -0.12620
  94        4PX        -0.00734  -0.00650  -0.02293   0.02500   0.00942
  95        4PY         0.02380  -0.01991   0.04849  -0.02996   0.01178
  96        4PZ         0.01658  -0.03024   0.02482  -0.00418  -0.01124
                          36        37        38        39        40
                           V         V         V         V         V
     Eigenvalues --     0.60129   0.62011   0.64857   0.68490   0.80695
   1 1   C  1S         -0.00857   0.01104   0.01956   0.03636  -0.04917
   2        2S         -0.01589   0.01981   0.03890   0.07501  -0.10169
   3        2PX        -0.13056   0.04435  -0.15940  -0.06698  -0.02013
   4        2PY        -0.04888  -0.08692   0.08095   0.05748   0.03847
   5        2PZ        -0.13900   0.00016   0.03379  -0.02858  -0.02559
   6        3S          0.11060  -0.11405  -0.32313  -0.68321   1.15391
   7        3PX        -0.35197   0.03568  -0.50772  -0.02815   0.02079
   8        3PY        -0.19016  -0.33311   0.17779   0.06736   0.13342
   9        3PZ        -0.48730  -0.00903   0.13073  -0.09523  -0.10119
  10        4S         -0.70323   1.27439  -0.18538   1.02963  -5.43375
  11        4PX         0.72845  -0.92697   1.84097   0.93775   0.82725
  12        4PY         0.05460   0.58312  -0.79758  -0.51107  -0.81825
  13        4PZ         1.14385  -0.11774  -0.42247   0.33384   0.41242
  14        5D 0        0.02867  -0.01789   0.02796   0.06988   0.06167
  15        5D+1        0.01568   0.00000  -0.00264  -0.00428  -0.04465
  16        5D-1       -0.03688   0.00237   0.01010   0.00814   0.01364
  17        5D+2       -0.02385   0.03280  -0.00460  -0.02054  -0.01383
  18        5D-2        0.01256  -0.01796   0.07144   0.09851  -0.00609
  19 2   C  1S          0.00343   0.01013   0.00170   0.09292   0.05148
  20        2S          0.00607   0.01940   0.00316   0.18780   0.10850
  21        2PX        -0.05933   0.01209  -0.21267   0.00407   0.00109
  22        2PY         0.06693  -0.25580  -0.00884  -0.00514  -0.00762
  23        2PZ         0.00480  -0.02640  -0.00180  -0.01197  -0.01285
  24        3S         -0.04851  -0.12753  -0.02206  -1.54125  -1.19505
  25        3PX        -0.13525   0.02814  -0.58988   0.01391  -0.00286
  26        3PY         0.12274  -0.87965  -0.02986   0.09722  -0.03454
  27        3PZ         0.02867  -0.10057  -0.00932  -0.01037   0.02209
  28        4S          0.76317  -0.99288  -0.00334   3.72398   7.05120
  29        4PX         0.52797  -0.15670   2.48535  -0.10413  -0.15714
  30        4PY        -0.38255   3.01368   0.23983  -0.28405  -1.13313
  31        4PZ        -0.03616   0.26421   0.08431   0.00383   0.03331
  32        5D 0       -0.02301   0.00918  -0.00075  -0.00674  -0.05522
  33        5D+1       -0.04645  -0.00020   0.00659   0.00059   0.01380
  34        5D-1       -0.01658   0.00005   0.00299   0.02128  -0.04088
  35        5D+2       -0.00449  -0.08904  -0.00442  -0.06614   0.01530
  36        5D-2       -0.02450   0.00278  -0.06801   0.00042   0.00443
  37 3   C  1S          0.00623   0.01044  -0.01569   0.03724  -0.05569
  38        2S          0.01082   0.01876  -0.03144   0.07675  -0.11521
  39        2PX         0.10030  -0.03783  -0.15727   0.06842   0.01435
  40        2PY        -0.11281  -0.06131  -0.07909   0.06958   0.04403
  41        2PZ         0.14556  -0.00600  -0.02128  -0.01776  -0.01320
  42        3S         -0.03038  -0.10645   0.26106  -0.69736   1.29679
  43        3PX         0.31491  -0.02353  -0.49665   0.02429  -0.02862
  44        3PY        -0.35573  -0.25530  -0.17418   0.10594   0.16257
  45        3PZ         0.50967  -0.03218  -0.08131  -0.05841  -0.05274
  46        4S         -0.11138   1.10534   0.49465   0.95778  -6.02694
  47        4PX        -0.56673   0.86518   1.96154  -0.93914  -0.81641
  48        4PY         0.72036   0.33045   0.65809  -0.70446  -0.99995
  49        4PZ        -1.11513  -0.04694   0.16988   0.23479   0.25290
  50        5D 0       -0.02466  -0.01071  -0.03228   0.07338   0.05070
  51        5D+1        0.03360   0.00052  -0.00322   0.00709   0.02182
  52        5D-1        0.02355   0.00083  -0.00692   0.00789  -0.00271
  53        5D+2       -0.01298   0.02608  -0.00057  -0.02602  -0.01163
  54        5D-2       -0.00903   0.01662   0.06996  -0.09727   0.00051
  55 4   H  1S         -0.02554   0.04416   0.00059   0.03153   0.04798
  56        2S         -0.26661  -0.05435  -0.06418  -0.19417  -0.49852
  57        3S          0.36573  -1.96923  -0.10980  -0.61913  -0.31233
  58        4PX        -0.00725   0.00445  -0.02702   0.00314   0.00005
  59        4PY        -0.00702   0.07175   0.00680   0.12624   0.13223
  60        4PZ        -0.00409   0.00834   0.00367   0.02722  -0.01792
  61 5   H  1S          0.05497  -0.00700  -0.00317   0.00191   0.01557
  62        2S          0.39735   0.06657   0.14918  -0.26548   0.89515
  63        3S         -1.06155   0.00539   0.77891  -0.27658   0.68599
  64        4PX        -0.03509   0.02341   0.00182  -0.03185   0.06865
  65        4PY         0.01759   0.02615  -0.05839   0.04659  -0.07536
  66        4PZ        -0.00253  -0.00968   0.00332  -0.00561   0.00608
  67 6   H  1S          0.02949   0.01605  -0.01788  -0.00016   0.00565
  68        2S          0.12927  -0.02434  -0.17915  -0.20528   0.73751
  69        3S         -0.42157   0.22819   0.72995  -0.43674   0.21561
  70        4PX         0.00020  -0.05429  -0.03297   0.03223   0.02387
  71        4PY        -0.02683  -0.02343   0.00565  -0.01749   0.06208
  72        4PZ         0.00207   0.01138   0.03370  -0.06153   0.05317
  73 7   H  1S         -0.04158   0.01197  -0.00883  -0.00680  -0.00749
  74        2S         -0.11456   0.03792  -0.12262  -0.26062   0.68792
  75        3S          1.24153   0.10772   0.37390  -0.59974   0.07849
  76        4PX         0.02377  -0.02520  -0.01788   0.03097   0.06503
  77        4PY         0.01121  -0.01376  -0.01124   0.00397   0.05190
  78        4PZ        -0.03427  -0.00377  -0.02709   0.07397  -0.05803
  79 8   H  1S          0.02232  -0.00226   0.00490   0.00216   0.01403
  80        2S          0.32265   0.04944  -0.12467  -0.28623   0.80289
  81        3S         -0.40243  -0.09000  -0.81574  -0.31111   0.60064
  82        4PX        -0.01541  -0.01260   0.00072   0.03418  -0.05813
  83        4PY         0.01581   0.01959   0.06547   0.04349  -0.07280
  84        4PZ        -0.01658  -0.01175  -0.01300  -0.01364   0.00878
  85 9   H  1S          0.04229   0.00747   0.01122  -0.00465  -0.01397
  86        2S          0.14176   0.03504   0.11329  -0.26125   0.62324
  87        3S         -0.98113   0.19045  -0.29175  -0.62843  -0.02468
  88        4PX        -0.00818   0.01955  -0.01054  -0.02037  -0.08931
  89        4PY        -0.03079  -0.00883   0.01166   0.01680   0.04881
  90        4PZ         0.02712  -0.00516   0.02775   0.07557  -0.04490
  91 10  H  1S         -0.03643   0.01189   0.02002  -0.00612   0.01516
  92        2S         -0.22527  -0.05573   0.11733  -0.19811   0.68173
  93        3S          1.07761   0.36131  -0.84962  -0.29315   0.26895
  94        4PX        -0.00674   0.05943  -0.03474  -0.04021   0.00652
  95        4PY         0.02373  -0.02002  -0.02027  -0.02074   0.06492
  96        4PZ         0.01865   0.01247  -0.03115  -0.05062   0.02991
                          41        42        43        44        45
                           V         V         V         V         V
     Eigenvalues --     0.90902   0.97273   0.99263   1.15908   1.26901
   1 1   C  1S          0.06107  -0.00607  -0.01707   0.00194  -0.00422
   2        2S          0.12997  -0.01276  -0.03674   0.00344  -0.00785
   3        2PX         0.03435  -0.00454  -0.01776   0.02577  -0.03202
   4        2PY         0.00097   0.00530   0.00268   0.02005  -0.00037
   5        2PZ        -0.02318  -0.00287  -0.03887   0.00406  -0.00565
   6        3S         -1.50701   0.17632   0.42847   0.01667   0.00364
   7        3PX         0.27563   0.00972  -0.12162   0.12597  -0.11312
   8        3PY        -0.01171   0.03856   0.00383   0.07317   0.02949
   9        3PZ        -0.08961   0.01448  -0.06261  -0.00297   0.03843
  10        4S          6.02594  -0.95451  -1.62640  -1.06207   1.50758
  11        4PX        -1.22416   0.10163   0.41279  -0.08913  -0.94714
  12        4PY         0.22324  -0.36828  -0.02835  -0.92707  -0.60404
  13        4PZ         0.32003  -0.14927   0.06975   0.05230  -0.51577
  14        5D 0        0.06333  -0.04357   0.09891   0.08548   0.05763
  15        5D+1       -0.13472   0.06057  -0.37154   0.07927   0.18095
  16        5D-1        0.03267   0.02845   0.10415   0.12307   0.20903
  17        5D+2       -0.04516  -0.06897   0.09841   0.31127   0.24078
  18        5D-2       -0.01954  -0.01188  -0.06650   0.13272   0.10924
  19 2   C  1S         -0.00467   0.00890  -0.00782   0.00077  -0.00712
  20        2S         -0.00979   0.01932  -0.01699   0.00156  -0.01561
  21        2PX         0.04280  -0.00659  -0.02682   0.01064   0.00015
  22        2PY         0.00010  -0.01661   0.00522   0.00247   0.05691
  23        2PZ        -0.00679   0.03480  -0.01723   0.00012   0.00471
  24        3S          0.11535  -0.22779   0.20201  -0.02175   0.21158
  25        3PX        -0.09525  -0.01023   0.00988  -0.11199   0.00123
  26        3PY         0.00250  -0.01787   0.00069   0.00201  -0.19054
  27        3PZ         0.00163   0.00030  -0.00048   0.00373  -0.05311
  28        4S         -0.68759   1.14114  -1.07591   0.15102  -1.04556
  29        4PX        -2.41211   0.23676   1.20457   1.48106  -0.16327
  30        4PY        -0.05607   0.11009   0.13352   0.03247   2.88407
  31        4PZ        -0.12058   0.18285  -0.08692  -0.01028   0.57238
  32        5D 0        0.00934  -0.00100   0.00690  -0.01341  -0.08609
  33        5D+1        0.09647   0.15944   0.28464   0.01272   0.04074
  34        5D-1       -0.05415   0.36557  -0.19106   0.01836  -0.00511
  35        5D+2        0.00019   0.06069  -0.03167  -0.01190  -0.19572
  36        5D-2        0.12574   0.00011  -0.05260  -0.08253   0.03036
  37 3   C  1S         -0.05232  -0.00128   0.02556  -0.00386  -0.00761
  38        2S         -0.11156  -0.00289   0.05509  -0.00775  -0.01609
  39        2PX         0.02729   0.00026  -0.02999   0.03011   0.04269
[...]
 Lowdin atomic charges with hydrogens summed into heavy atoms:
               1
     1  C    0.005977
     2  C   -0.011495
     3  C    0.005518
     4  H    0.000000
     5  H    0.000000
     6  H    0.000000
     7  H    0.000000
     8  H    0.000000
     9  H    0.000000
    10  H    0.000000
 Sum of Lowdin charges  =   0.00000
 Dipole moment from Lowdin charges (Debye):
    X=     0.0064    Y=    -0.1701    Z=     0.0141  Tot=     0.1708
 Electronic spatial extent (au):  <R**2>=            220.9388
 Charge=              0.0000 electrons
 Dipole moment (field-independent basis, Debye):
    X=              0.0035    Y=             -0.1008    Z=              0.1635  Tot=              0.1921
 Quadrupole moment (field-independent basis, Debye-Ang):
   XX=            -20.8420   YY=            -20.7539   ZZ=            -21.8148
   XY=              0.0035   XZ=             -0.0028   YZ=              0.2406
 Traceless Quadrupole moment (field-independent basis, Debye-Ang):
   XX=              0.2949   YY=              0.3830   ZZ=             -0.6779
   XY=              0.0035   XZ=             -0.0028   YZ=              0.2406
 Octapole moment (field-independent basis, Debye-Ang**2):
  XXX=             -0.0140  YYY=              1.2488  ZZZ=              0.8629  XYY=             -0.0587
  XXY=              1.2710  XXZ=             -0.2908  XZZ=              0.0798  YZZ=             -1.4366
  YYZ=             -0.1882  XYZ=             -0.1028
 Hexadecapole moment (field-independent basis, Debye-Ang**3):
 XXXX=           -210.7782 YYYY=            -60.9274 ZZZZ=            -38.8465 XXXY=             -0.1817
 XXXZ=             -0.3606 YYYX=             -0.1306 YYYZ=              1.5046 ZZZX=              0.3233
 ZZZY=              0.0116 XXYY=            -45.2102 XXZZ=            -42.1050 YYZZ=            -16.9222
 XXYZ=             -0.7310 YYXZ=             -0.1754 ZZXY=              0.2190
 N-N= 7.522018839345D+01 E-N=-4.243893756068D+02  KE= 1.178693073651D+02
 Orbital energies and kinetic energies (alpha):
                                 1                 2
   1         O               -10.172366         15.948577
   2         O               -10.163006         15.957776
   3         O               -10.162957         15.958030
   4         O                -0.781809          1.381973
   5         O                -0.691315          1.347226
   6         O                -0.571918          1.302033
   7         O                -0.453444          0.988493
   8         O                -0.430496          0.918114
   9         O                -0.410505          1.106185
  10         O                -0.387062          1.009211
  11         O                -0.357402          1.255612
  12         O                -0.350418          1.136668
  13         O                -0.185744          1.261464
  14         V                 0.047642          0.585035
  15         V                 0.075849          0.602144
  16         V                 0.081074          0.628800
  17         V                 0.108939          0.630424
  18         V                 0.127112          0.755854
  19         V                 0.131815          0.693252
  20         V                 0.141453          0.707519
  21         V                 0.213960          0.976928
  22         V                 0.266815          1.169095
  23         V                 0.273086          0.973230
  24         V                 0.296640          0.784483
  25         V                 0.340411          1.021212
  26         V                 0.355703          1.044842
  27         V                 0.411211          1.596612
  28         V                 0.419816          1.166903
  29         V                 0.427473          1.010863
  30         V                 0.483598          1.252210
  31         V                 0.552249          2.015724
  32         V                 0.561643          1.967244
  33         V                 0.577101          1.815141
  34         V                 0.595288          1.900900
  35         V                 0.598526          2.004643
  36         V                 0.601289          1.910179
  37         V                 0.620109          1.803798
  38         V                 0.648567          2.056652
  39         V                 0.684895          2.195527
  40         V                 0.806947          1.926160
  41         V                 0.909024          1.961878
  42         V                 0.972733          1.796438
  43         V                 0.992633          1.860712
  44         V                 1.159085          1.916821
  45         V                 1.269010          2.025660
  46         V                 1.347454          2.159172
  47         V                 1.379050          2.217307
  48         V                 1.420841          2.282602
  49         V                 1.458870          2.106537
  50         V                 1.460139          2.099092
  51         V                 1.474217          2.392255
  52         V                 1.501877          2.385630
  53         V                 1.512012          2.359350
  54         V                 1.529599          2.345983
  55         V                 1.539306          2.502967
  56         V                 1.598301          2.481846
  57         V                 1.691355          2.778582
  58         V                 1.695527          2.825958
  59         V                 1.754533          2.782856
  60         V                 1.773572          2.564262
  61         V                 1.855049          2.922509
  62         V                 1.913866          3.085926
  63         V                 1.922545          3.087964
  64         V                 2.021938          3.138706
  65         V                 2.067047          3.228494
  66         V                 2.070758          3.283207
  67         V                 2.211759          3.888195
  68         V                 2.268608          3.401173
  69         V                 2.284600          3.952743
  70         V                 2.309265          3.710688
  71         V                 2.315965          4.087605
  72         V                 2.412131          3.668714
  73         V                 2.421784          3.646559
  74         V                 2.444746          4.422323
  75         V                 2.463854          4.456735
  76         V                 2.468221          4.070504
  77         V                 2.498991          4.216475
  78         V                 2.509842          4.236831
  79         V                 2.575306          3.907549
  80         V                 2.627815          4.306384
  81         V                 2.644782          4.491400
  82         V                 2.761728          4.972950
  83         V                 2.788352          4.640285
  84         V                 2.805646          5.452678
  85         V                 2.864097          4.874186
  86         V                 3.098990          6.132313
  87         V                 3.307872          6.613766
  88         V                 3.727449          6.255049
  89         V                 3.785022          6.359401
  90         V                 3.796516          6.397077
  91         V                 3.818667          6.399648
  92         V                 4.001912          6.898627
  93         V                 4.268748          7.332111
  94         V                23.794484         60.294632
  95         V                23.893287         60.311044
  96         V                23.939176         60.341077
 Orbital energies and kinetic energies (beta):
                                 1                 2
   1         O               -10.163896         15.956994
   2         O               -10.163842         15.957038
   3         O               -10.158176         15.972644
   4         O                -0.764738          1.358414
   5         O                -0.688950          1.356261
   6         O                -0.550557          1.277990
   7         O                -0.448844          0.983420
   8         O                -0.413294          0.915775
   9         O                -0.404673          1.090643
  10         O                -0.380571          1.013888
  11         O                -0.353792          1.277636
  12         O                -0.345027          1.137242
  13         V                -0.039690          1.064818
  14         V                 0.048932          0.582585
  15         V                 0.079170          0.588770
  16         V                 0.082254          0.620712
  17         V                 0.112729          0.637093
  18         V                 0.130590          0.709356
  19         V                 0.133785          0.699632
  20         V                 0.143685          0.699009
  21         V                 0.223389          0.943004
  22         V                 0.271337          1.126574
  23         V                 0.275918          0.998569
  24         V                 0.301228          0.793749
  25         V                 0.344004          1.026261
  26         V                 0.366838          1.000666
  27         V                 0.426720          1.007242
  28         V                 0.431654          1.641012
  29         V                 0.437302          1.181482
  30         V                 0.527698          1.457929
  31         V                 0.559965          2.023061
  32         V                 0.568212          1.935052
  33         V                 0.579457          1.834804
  34         V                 0.596140          1.909706
  35         V                 0.600010          1.993749
  36         V                 0.602360          1.881556
  37         V                 0.628220          1.863963
  38         V                 0.653244          2.095723
  39         V                 0.698966          2.151280
  40         V                 0.819025          1.940706
  41         V                 0.911130          1.963970
  42         V                 0.989013          1.799651
  43         V                 1.005405          1.846033
  44         V                 1.159215          1.917839
  45         V                 1.273576          2.026821
  46         V                 1.362173          2.173601
  47         V                 1.397810          2.229618
  48         V                 1.431578          2.271472
  49         V                 1.463272          2.110901
  50         V                 1.464911          2.100187
  51         V                 1.479330          2.386654
  52         V                 1.507712          2.373621
  53         V                 1.515693          2.376803
  54         V                 1.536859          2.320279
  55         V                 1.554122          2.475387
  56         V                 1.611658          2.590265
  57         V                 1.695842          2.908412
  58         V                 1.707708          2.674337
  59         V                 1.768242          2.695844
  60         V                 1.778360          2.645647
  61         V                 1.876521          2.943314
  62         V                 1.927594          3.062452
  63         V                 1.939183          3.092531
  64         V                 2.026048          3.133657
  65         V                 2.071808          3.239757
  66         V                 2.076339          3.275937
  67         V                 2.219853          3.928861
  68         V                 2.276603          3.447783
  69         V                 2.296161          3.845446
  70         V                 2.314343          3.725289
  71         V                 2.319226          4.086295
  72         V                 2.419852          3.675079
  73         V                 2.428616          3.661150
  74         V                 2.448637          4.380781
  75         V                 2.466395          4.566836
  76         V                 2.472626          4.070728
  77         V                 2.506199          4.200638
  78         V                 2.516906          4.148618
  79         V                 2.579133          3.888930
  80         V                 2.633536          4.293888
  81         V                 2.651293          4.503091
  82         V                 2.771554          4.925123
  83         V                 2.795771          4.397859
  84         V                 2.849486          5.278326
  85         V                 2.883019          5.435139
  86         V                 3.104540          6.135291
  87         V                 3.314875          6.616734
  88         V                 3.730761          6.248155
  89         V                 3.787027          6.350087
  90         V                 3.801192          6.394376
  91         V                 3.820339          6.398990
  92         V                 4.016982          6.890937
  93         V                 4.282816          7.328752
  94         V                23.809765         60.285805
  95         V                23.893153         60.307059
  96         V                23.938306         60.341119
 Total kinetic energy from orbitals= 1.178693073651D+02
                          Isotropic Fermi Contact Couplings
        Atom                 a.u.       MegaHertz       Gauss      10(-4) cm-1
     1  C(13)             -0.02917     -32.78899     -11.69993     -10.93723
     2  C(13)              0.08015      90.10320      32.15106      30.05519
     3  C(13)             -0.02937     -33.01688     -11.78124     -11.01325
     4  H(1)              -0.01336     -59.72850     -21.31261     -19.92328
     5  H(1)               0.00176       7.86769       2.80739       2.62438
     6  H(1)               0.01521      67.99492      24.26228      22.68066
     7  H(1)               0.02725     121.81525      43.46671      40.63320
     8  H(1)               0.00412      18.40196       6.56628       6.13823
     9  H(1)               0.02888     129.09643      46.06482      43.06194
    10  H(1)               0.01081      48.31885      17.24137      16.11743
 --------------------------------------------------------
       Center         ----  Spin Dipole Couplings  ----
                      3XX-RR        3YY-RR        3ZZ-RR
 --------------------------------------------------------
     1   Atom        0.010187     -0.005825     -0.004362
     2   Atom       -0.577674     -0.563027      1.140701
     3   Atom        0.010194     -0.006309     -0.003885
     4   Atom       -0.072559      0.072451      0.000107
     5   Atom        0.016330     -0.009213     -0.007118
     6   Atom        0.002553      0.004810     -0.007364
     7   Atom        0.004090     -0.000375     -0.003715
     8   Atom        0.016492     -0.008967     -0.007525
     9   Atom        0.005067     -0.002207     -0.002861
    10   Atom        0.001413      0.006228     -0.007641
 --------------------------------------------------------
                        XY            XZ            YZ
 --------------------------------------------------------
     1   Atom       -0.015352      0.003745     -0.003914
     2   Atom       -0.000160      0.001121     -0.125355
     3   Atom        0.015556     -0.004448     -0.003036
     4   Atom        0.000287      0.000199      0.013448
     5   Atom        0.001909     -0.000361      0.000013
     6   Atom        0.011851      0.003825      0.004212
     7   Atom        0.009575     -0.005009     -0.005792
     8   Atom       -0.002211     -0.000981      0.000402
     9   Atom       -0.009378      0.005845     -0.004959
    10   Atom       -0.011742     -0.003081      0.003230
 --------------------------------------------------------


 ---------------------------------------------------------------------------------
              Anisotropic Spin Dipole Couplings in Principal Axis System
 ---------------------------------------------------------------------------------

       Atom             a.u.   MegaHertz   Gauss  10(-4) cm-1        Axes

              Baa    -0.0153    -2.057    -0.734    -0.686  0.4959  0.8575  0.1367
     1 C(13)  Bbb    -0.0053    -0.707    -0.252    -0.236 -0.2466 -0.0119  0.9690
              Bcc     0.0206     2.764     0.986     0.922  0.8326 -0.5143  0.2056
 
              Baa    -0.5777   -77.519   -27.661   -25.857  0.9999  0.0142  0.0004
     2 C(13)  Bbb    -0.5722   -76.784   -27.398   -25.612 -0.0141  0.9972  0.0730
              Bcc     1.1499   154.302    55.059    51.470  0.0007 -0.0730  0.9973
 
              Baa    -0.0157    -2.103    -0.751    -0.702 -0.5116  0.8588  0.0281
     3 C(13)  Bbb    -0.0051    -0.678    -0.242    -0.226  0.1975  0.0857  0.9765
              Bcc     0.0207     2.781     0.992     0.928  0.8362  0.5051 -0.2135
 
              Baa    -0.0726   -38.714   -13.814   -12.914  1.0000 -0.0018 -0.0024
     4 H(1)   Bbb    -0.0023    -1.233    -0.440    -0.411  0.0021 -0.1770  0.9842
              Bcc     0.0749    39.948    14.254    13.325  0.0022  0.9842  0.1770
 
              Baa    -0.0094    -4.992    -1.781    -1.665 -0.0744  0.9971 -0.0176
     5 H(1)   Bbb    -0.0071    -3.800    -1.356    -1.268  0.0139  0.0187  0.9997
              Bcc     0.0165     8.792     3.137     2.933  0.9971  0.0741 -0.0152
 
              Baa    -0.0087    -4.640    -1.656    -1.548 -0.1477 -0.1740  0.9736
     6 H(1)   Bbb    -0.0082    -4.387    -1.566    -1.463  0.7411 -0.6714 -0.0076
              Bcc     0.0169     9.028     3.221     3.011  0.6550  0.7204  0.2281
 
              Baa    -0.0088    -4.712    -1.682    -1.572 -0.3773  0.7747  0.5075
     7 H(1)   Bbb    -0.0059    -3.167    -1.130    -1.056  0.5946 -0.2175  0.7741
              Bcc     0.0148     7.879     2.811     2.628  0.7100  0.5938 -0.3785
 
              Baa    -0.0092    -4.919    -1.755    -1.641  0.0770  0.9792 -0.1878
     8 H(1)   Bbb    -0.0075    -4.005    -1.429    -1.336  0.0571  0.1837  0.9813
              Bcc     0.0167     8.924     3.184     2.977  0.9954 -0.0863 -0.0417
 
              Baa    -0.0088    -4.711    -1.681    -1.571  0.4694  0.8483  0.2451
     9 H(1)   Bbb    -0.0060    -3.180    -1.135    -1.061 -0.4666  0.0027  0.8845
              Bcc     0.0148     7.890     2.815     2.632  0.7496 -0.5295  0.3971
 
              Baa    -0.0087    -4.632    -1.653    -1.545  0.5207  0.2321  0.8216
    10 H(1)   Bbb    -0.0079    -4.237    -1.512    -1.413  0.5830  0.6064 -0.5408
              Bcc     0.0166     8.869     3.165     2.958 -0.6237  0.7606  0.1804
 

 ---------------------------------------------------------------------------------


 Test job not archived.
 1\1\GINC-KADET27\SP\UB3LYP\6-311G(d,p)\C3H7(2)\MDOROHUN\15-Apr-2026\0\
 \# UB3LYP/6-311G(d,p) GFInput Pop=Full IOP(6/80=1)\\c3h7 rodnik\\0,2\C
 ,0,-0.079593,0.018826,-0.080189\C,0,0.074867,0.111703,1.401895\C,0,1.4
 20089,-0.009236,2.038861\H,0,-0.75744,0.484055,1.994564\H,0,1.362749,-
 0.013997,3.132935\H,0,1.932411,-0.932104,1.724764\H,0,2.092036,0.82021
 1,1.752209\H,0,-1.123087,-0.131069,-0.379965\H,0,0.272563,0.932338,-0.
 595885\H,0,0.514808,-0.809176,-0.493316\\Version=ES64L-G09RevD.01\Stat
 e=2-A\HF=-118.5140724\S2=0.754042\S2-1=0.\S2A=0.750012\RMSD=5.883e-09\
 Dipole=0.042209,0.0545738,-0.0308165\Quadrupole=0.1901718,-0.3958914,0
 .2057195,-0.2683514,0.0198295,0.1832932\PG=C01 [X(C3H7)]\\@


 EVERYBODY NEEDS BEAUTY AS WELL AS BREAD, PLACES TO PLAY IN AND PRAY IN,
 WHERE NATURE MAY HEAL AND CHEER AND GIVE STRENGTH TO BODY AND SOUL ALIKE.

                                    -- JOHN MUIR
 Job cpu time:       0 days  0 hours  0 minutes  4.2 seconds.
 File lengths (MBytes):  RWF=      8 Int=      0 D2E=      0 Chk=      2 Scr=      1
 Normal termination of Gaussian 09 at Wed Apr 15 13:15:15 2026.
