 Entering Gaussian System, Link 0=/opt/g09/g09/g09
 Input=c3h8.inp
 Output=c3h8.log
 Initial command:
 /opt/g09/g09/l1.exe "/tmp/Gau-5472.inp" -scrdir="/tmp/"
 Entering Link 1 = /opt/g09/g09/l1.exe PID=      5474.
  
 Copyright (c) 1988,1990,1992,1993,1995,1998,2003,2009,2013,
            Gaussian, Inc.  All Rights Reserved.
  
 This is part of the Gaussian(R) 09 program.  It is based on
 the Gaussian(R) 03 system (copyright 2003, Gaussian, Inc.),
 the Gaussian(R) 98 system (copyright 1998, Gaussian, Inc.),
 the Gaussian(R) 94 system (copyright 1995, Gaussian, Inc.),
 the Gaussian 92(TM) system (copyright 1992, Gaussian, Inc.),
 the Gaussian 90(TM) system (copyright 1990, Gaussian, Inc.),
 the Gaussian 88(TM) system (copyright 1988, Gaussian, Inc.),
 the Gaussian 86(TM) system (copyright 1986, Carnegie Mellon
 University), and the Gaussian 82(TM) system (copyright 1983,
 Carnegie Mellon University). Gaussian is a federally registered
 trademark of Gaussian, Inc.
  
 This software contains proprietary and confidential information,
 including trade secrets, belonging to Gaussian, Inc.
  
 This software is provided under written license and may be
 used, copied, transmitted, or stored only in accord with that
 written license.
  
 The following legend is applicable only to US Government
 contracts under FAR:
  
                    RESTRICTED RIGHTS LEGEND
  
 Use, reproduction and disclosure by the US Government is
 subject to restrictions as set forth in subparagraphs (a)
 and (c) of the Commercial Computer Software - Restricted
 Rights clause in FAR 52.227-19.
  
 Gaussian, Inc.
 340 Quinnipiac St., Bldg. 40, Wallingford CT 06492
  
  
 ---------------------------------------------------------------
 Warning -- This program may not be used in any manner that
 competes with the business of Gaussian, Inc. or will provide
 assistance to any competitor of Gaussian, Inc.  The licensee
 of this program is prohibited from giving any competitor of
 Gaussian, Inc. access to this program.  By using this program,
 the user acknowledges that Gaussian, Inc. is engaged in the
 business of creating and licensing software in the field of
 computational chemistry and represents and warrants to the
 licensee that it is not a competitor of Gaussian, Inc. and that
 it will not use this program in any manner prohibited above.
 ---------------------------------------------------------------
  

 Cite this work as:
 Gaussian 09, Revision D.01,
 M. J. Frisch, G. W. Trucks, H. B. Schlegel, G. E. Scuseria, 
 M. A. Robb, J. R. Cheeseman, G. Scalmani, V. Barone, B. Mennucci, 
 G. A. Petersson, H. Nakatsuji, M. Caricato, X. Li, H. P. Hratchian, 
 A. F. Izmaylov, J. Bloino, G. Zheng, J. L. Sonnenberg, M. Hada, 
 M. Ehara, K. Toyota, R. Fukuda, J. Hasegawa, M. Ishida, T. Nakajima, 
 Y. Honda, O. Kitao, H. Nakai, T. Vreven, J. A. Montgomery, Jr., 
 J. E. Peralta, F. Ogliaro, M. Bearpark, J. J. Heyd, E. Brothers, 
 K. N. Kudin, V. N. Staroverov, T. Keith, R. Kobayashi, J. Normand, 
 K. Raghavachari, A. Rendell, J. C. Burant, S. S. Iyengar, J. Tomasi, 
 M. Cossi, N. Rega, J. M. Millam, M. Klene, J. E. Knox, J. B. Cross, 
 V. Bakken, C. Adamo, J. Jaramillo, R. Gomperts, R. E. Stratmann, 
 O. Yazyev, A. J. Austin, R. Cammi, C. Pomelli, J. W. Ochterski, 
 R. L. Martin, K. Morokuma, V. G. Zakrzewski, G. A. Voth, 
 P. Salvador, J. J. Dannenberg, S. Dapprich, A. D. Daniels, 
 O. Farkas, J. B. Foresman, J. V. Ortiz, J. Cioslowski, 
 and D. J. Fox, Gaussian, Inc., Wallingford CT, 2013.
 
 ******************************************
 Gaussian 09:  ES64L-G09RevD.01 24-Apr-2013
                15-Apr-2026 
 ******************************************
 ------------------------------------------------
 # B3LYP/6-311G(d,p) GFInput Pop=Full IOP(6/80=1)
 ------------------------------------------------
 1/38=1/1;
 2/12=2,17=6,18=5,40=1/2;
 3/5=4,6=6,7=101,11=2,16=1,24=10,25=1,30=1,74=-5/1,2,3;
 4//1;
 5/5=2,38=5/2;
 6/7=3,28=1,80=1/1;
 99/5=1,9=1/99;
 -------------------------------------
 c3h8 zamkniętopowłokowa cząsteczka
 -------------------------------------
 Symbolic Z-matrix:
 Charge =  0 Multiplicity = 1
 C                    -0.00567  -0.00001  -0.00519 
 C                    -0.05286  -0.00001   1.5285 
 C                     1.42159   0.00002  -0.55877 
 H                    -0.54773  -0.87781  -0.38337 
 H                    -0.54776   0.87776  -0.38338 
 H                     1.43034  -0.00001  -1.65584 
 H                     1.97894   0.8841   -0.22318 
 H                     1.97901  -0.884    -0.22313 
 H                    -1.08583   0.00009   1.89586 
 H                     0.44905  -0.88583   1.93758 
 H                     0.44922   0.88571   1.93759 
 
                          Input orientation:                          
 ---------------------------------------------------------------------
 Center     Atomic      Atomic             Coordinates (Angstroms)
 Number     Number       Type             X           Y           Z
 ---------------------------------------------------------------------
      1          6           0       -0.005665   -0.000012   -0.005194
      2          6           0       -0.052863   -0.000009    1.528496
      3          6           0        1.421587    0.000016   -0.558768
      4          1           0       -0.547729   -0.877812   -0.383369
      5          1           0       -0.547763    0.877762   -0.383379
      6          1           0        1.430338   -0.000014   -1.655842
      7          1           0        1.978939    0.884098   -0.223181
      8          1           0        1.979005   -0.884003   -0.223127
      9          1           0       -1.085826    0.000091    1.895861
     10          1           0        0.449050   -0.885831    1.937580
     11          1           0        0.449219    0.885713    1.937591
 ---------------------------------------------------------------------
                    Distance matrix (angstroms):
                    1          2          3          4          5
     1  C    0.000000
     2  C    1.534416   0.000000
     3  C    1.530847   2.555518   0.000000
     4  H    1.098810   2.161171   2.163227   0.000000
     5  H    1.098809   2.161174   2.163224   1.755574   0.000000
     6  H    2.187863   3.512818   1.097109   2.510471   2.510485
     7  H    2.183534   2.824577   1.097662   3.084483   2.531783
     8  H    2.183541   2.824556   1.097661   2.531818   3.084486
     9  H    2.186494   1.096344   3.508892   2.501030   2.500950
    10  H    2.183074   1.097245   2.821756   2.525953   3.080706
    11  H    2.183081   1.097246   2.821660   3.080711   2.526052
                    6          7          8          9         10
     6  H    0.000000
     7  H    1.770631   0.000000
     8  H    1.770634   1.768101   0.000000
     9  H    4.352663   3.829438   3.829481   0.000000
    10  H    3.828874   3.184666   2.647531   1.772694   0.000000
    11  H    3.828821   2.647448   3.184469   1.772690   1.771544
                   11
    11  H    0.000000
 Stoichiometry    C3H8
 Framework group  C1[X(C3H8)]
 Deg. of freedom    27
 Full point group                 C1      NOp   1
 Largest Abelian subgroup         C1      NOp   1
 Largest concise Abelian subgroup C1      NOp   1
                         Standard orientation:                         
 ---------------------------------------------------------------------
 Center     Atomic      Atomic             Coordinates (Angstroms)
 Number     Number       Type             X           Y           Z
 ---------------------------------------------------------------------
      1          6           0       -0.000898    0.586328    0.000000
      2          6           0        1.278340   -0.261011    0.000000
      3          6           0       -1.277178   -0.259013    0.000001
      4          1           0        0.003500    1.247276    0.877788
      5          1           0        0.003493    1.247277   -0.877786
      6          1           0       -2.177792    0.367519    0.000028
      7          1           0       -1.325171   -0.907842   -0.884069
      8          1           0       -1.325147   -0.907895    0.884032
      9          1           0        2.174871    0.370022   -0.000121
     10          1           0        1.322383   -0.907003    0.885833
     11          1           0        1.322277   -0.907180   -0.885711
 ---------------------------------------------------------------------
 Rotational constants (GHZ):     29.4098969      8.3526885      7.4027379
 Standard basis: 6-311G(d,p) (5D, 7F)
 AO basis set in the form of general basis input (Overlap normalization):
      1 0
 S   6 1.00       0.000000000000
      0.4563240000D+04  0.1966650249D-02
      0.6820240000D+03  0.1523060193D-01
      0.1549730000D+03  0.7612690966D-01
      0.4445530000D+02  0.2608010331D+00
      0.1302900000D+02  0.6164620782D+00
      0.1827730000D+01  0.2210060280D+00
 SP   3 1.00       0.000000000000
      0.2096420000D+02  0.1146600807D+00  0.4024869267D-01
      0.4803310000D+01  0.9199996477D+00  0.2375939567D+00
      0.1459330000D+01 -0.3030682134D-02  0.8158538515D+00
 SP   1 1.00       0.000000000000
      0.4834560000D+00  0.1000000000D+01  0.1000000000D+01
 SP   1 1.00       0.000000000000
      0.1455850000D+00  0.1000000000D+01  0.1000000000D+01
 D   1 1.00       0.000000000000
      0.6260000000D+00  0.1000000000D+01
 ****
      2 0
 S   6 1.00       0.000000000000
      0.4563240000D+04  0.1966650249D-02
      0.6820240000D+03  0.1523060193D-01
      0.1549730000D+03  0.7612690966D-01
      0.4445530000D+02  0.2608010331D+00
      0.1302900000D+02  0.6164620782D+00
      0.1827730000D+01  0.2210060280D+00
 SP   3 1.00       0.000000000000
      0.2096420000D+02  0.1146600807D+00  0.4024869267D-01
      0.4803310000D+01  0.9199996477D+00  0.2375939567D+00
      0.1459330000D+01 -0.3030682134D-02  0.8158538515D+00
 SP   1 1.00       0.000000000000
      0.4834560000D+00  0.1000000000D+01  0.1000000000D+01
 SP   1 1.00       0.000000000000
      0.1455850000D+00  0.1000000000D+01  0.1000000000D+01
 D   1 1.00       0.000000000000
      0.6260000000D+00  0.1000000000D+01
 ****
      3 0
 S   6 1.00       0.000000000000
      0.4563240000D+04  0.1966650249D-02
      0.6820240000D+03  0.1523060193D-01
      0.1549730000D+03  0.7612690966D-01
      0.4445530000D+02  0.2608010331D+00
      0.1302900000D+02  0.6164620782D+00
      0.1827730000D+01  0.2210060280D+00
 SP   3 1.00       0.000000000000
      0.2096420000D+02  0.1146600807D+00  0.4024869267D-01
      0.4803310000D+01  0.9199996477D+00  0.2375939567D+00
      0.1459330000D+01 -0.3030682134D-02  0.8158538515D+00
 SP   1 1.00       0.000000000000
      0.4834560000D+00  0.1000000000D+01  0.1000000000D+01
 SP   1 1.00       0.000000000000
      0.1455850000D+00  0.1000000000D+01  0.1000000000D+01
 D   1 1.00       0.000000000000
      0.6260000000D+00  0.1000000000D+01
 ****
      4 0
 S   3 1.00       0.000000000000
      0.3386500000D+02  0.2549381454D-01
      0.5094790000D+01  0.1903731086D+00
      0.1158790000D+01  0.8521614860D+00
 S   1 1.00       0.000000000000
      0.3258400000D+00  0.1000000000D+01
 S   1 1.00       0.000000000000
      0.1027410000D+00  0.1000000000D+01
 P   1 1.00       0.000000000000
      0.7500000000D+00  0.1000000000D+01
 ****
      5 0
 S   3 1.00       0.000000000000
      0.3386500000D+02  0.2549381454D-01
      0.5094790000D+01  0.1903731086D+00
      0.1158790000D+01  0.8521614860D+00
 S   1 1.00       0.000000000000
      0.3258400000D+00  0.1000000000D+01
 S   1 1.00       0.000000000000
      0.1027410000D+00  0.1000000000D+01
 P   1 1.00       0.000000000000
      0.7500000000D+00  0.1000000000D+01
 ****
      6 0
 S   3 1.00       0.000000000000
      0.3386500000D+02  0.2549381454D-01
      0.5094790000D+01  0.1903731086D+00
      0.1158790000D+01  0.8521614860D+00
 S   1 1.00       0.000000000000
      0.3258400000D+00  0.1000000000D+01
 S   1 1.00       0.000000000000
      0.1027410000D+00  0.1000000000D+01
 P   1 1.00       0.000000000000
      0.7500000000D+00  0.1000000000D+01
 ****
      7 0
 S   3 1.00       0.000000000000
      0.3386500000D+02  0.2549381454D-01
      0.5094790000D+01  0.1903731086D+00
      0.1158790000D+01  0.8521614860D+00
 S   1 1.00       0.000000000000
      0.3258400000D+00  0.1000000000D+01
 S   1 1.00       0.000000000000
      0.1027410000D+00  0.1000000000D+01
 P   1 1.00       0.000000000000
      0.7500000000D+00  0.1000000000D+01
 ****
      8 0
 S   3 1.00       0.000000000000
      0.3386500000D+02  0.2549381454D-01
      0.5094790000D+01  0.1903731086D+00
      0.1158790000D+01  0.8521614860D+00
 S   1 1.00       0.000000000000
      0.3258400000D+00  0.1000000000D+01
 S   1 1.00       0.000000000000
      0.1027410000D+00  0.1000000000D+01
 P   1 1.00       0.000000000000
      0.7500000000D+00  0.1000000000D+01
 ****
      9 0
 S   3 1.00       0.000000000000
      0.3386500000D+02  0.2549381454D-01
      0.5094790000D+01  0.1903731086D+00
      0.1158790000D+01  0.8521614860D+00
 S   1 1.00       0.000000000000
      0.3258400000D+00  0.1000000000D+01
 S   1 1.00       0.000000000000
      0.1027410000D+00  0.1000000000D+01
 P   1 1.00       0.000000000000
      0.7500000000D+00  0.1000000000D+01
 ****
     10 0
 S   3 1.00       0.000000000000
      0.3386500000D+02  0.2549381454D-01
      0.5094790000D+01  0.1903731086D+00
      0.1158790000D+01  0.8521614860D+00
 S   1 1.00       0.000000000000
      0.3258400000D+00  0.1000000000D+01
 S   1 1.00       0.000000000000
      0.1027410000D+00  0.1000000000D+01
 P   1 1.00       0.000000000000
      0.7500000000D+00  0.1000000000D+01
 ****
     11 0
 S   3 1.00       0.000000000000
      0.3386500000D+02  0.2549381454D-01
      0.5094790000D+01  0.1903731086D+00
      0.1158790000D+01  0.8521614860D+00
 S   1 1.00       0.000000000000
      0.3258400000D+00  0.1000000000D+01
 S   1 1.00       0.000000000000
      0.1027410000D+00  0.1000000000D+01
 P   1 1.00       0.000000000000
      0.7500000000D+00  0.1000000000D+01
 ****

 There are   105 symmetry adapted cartesian basis functions of A   symmetry.
 There are   102 symmetry adapted basis functions of A   symmetry.
   102 basis functions,   160 primitive gaussians,   105 cartesian basis functions
    13 alpha electrons       13 beta electrons
       nuclear repulsion energy        82.2264890524 Hartrees.
 NAtoms=   11 NActive=   11 NUniq=   11 SFac= 1.00D+00 NAtFMM=   60 NAOKFM=F Big=F
 Integral buffers will be    131072 words long.
 Raffenetti 2 integral format.
 Two-electron integral symmetry is turned on.
 One-electron integrals computed using PRISM.
 NBasis=   102 RedAO= T EigKep=  2.92D-03  NBF=   102
 NBsUse=   102 1.00D-06 EigRej= -1.00D+00 NBFU=   102
 ExpMin= 1.03D-01 ExpMax= 4.56D+03 ExpMxC= 6.82D+02 IAcc=1 IRadAn=         1 AccDes= 0.00D+00
 Harris functional with IExCor=  402 and IRadAn=       1 diagonalized for initial guess.
 HarFok:  IExCor=  402 AccDes= 0.00D+00 IRadAn=         1 IDoV= 1 UseB2=F ITyADJ=14
 ICtDFT=  3500011 ScaDFX=  1.000000  1.000000  1.000000  1.000000
 FoFCou: FMM=F IPFlag=           0 FMFlag=      100000 FMFlg1=           0
         NFxFlg=           0 DoJE=T BraDBF=F KetDBF=T FulRan=T
         wScrn=  0.000000 ICntrl=     500 IOpCl=  0 I1Cent=   200000004 NGrid=           0
         NMat0=    1 NMatS0=      1 NMatT0=    0 NMatD0=    1 NMtDS0=    0 NMtDT0=    0
 Petite list used in FoFCou.
 Keep R1 ints in memory in canonical form, NReq=14780127.
 Requested convergence on RMS density matrix=1.00D-08 within 128 cycles.
 Requested convergence on MAX density matrix=1.00D-06.
 Requested convergence on             energy=1.00D-06.
 No special actions if energy rises.
 Integral accuracy reduced to 1.0D-05 until final iterations.
 Initial convergence to 1.0D-05 achieved.  Increase integral accuracy.
 SCF Done:  E(RB3LYP) =  -119.180634261     A.U. after   11 cycles
            NFock= 11  Conv=0.81D-08     -V/T= 2.0058

 **********************************************************************

            Population analysis using the SCF density.

 **********************************************************************

 Orbital symmetries:
       Occupied  (A) (A) (A) (A) (A) (A) (A) (A) (A) (A) (A) (A)
                 (A)
       Virtual   (A) (A) (A) (A) (A) (A) (A) (A) (A) (A) (A) (A)
                 (A) (A) (A) (A) (A) (A) (A) (A) (A) (A) (A) (A)
                 (A) (A) (A) (A) (A) (A) (A) (A) (A) (A) (A) (A)
                 (A) (A) (A) (A) (A) (A) (A) (A) (A) (A) (A) (A)
                 (A) (A) (A) (A) (A) (A) (A) (A) (A) (A) (A) (A)
                 (A) (A) (A) (A) (A) (A) (A) (A) (A) (A) (A) (A)
                 (A) (A) (A) (A) (A) (A) (A) (A) (A) (A) (A) (A)
                 (A) (A) (A) (A) (A)
 The electronic state is 1-A.
 Alpha  occ. eigenvalues --  -10.16580 -10.15706 -10.15698  -0.77998  -0.68090
 Alpha  occ. eigenvalues --   -0.58510  -0.45729  -0.43710  -0.39961  -0.38200
 Alpha  occ. eigenvalues --   -0.34041  -0.33849  -0.32944
 Alpha virt. eigenvalues --    0.04404   0.08222   0.08589   0.08773   0.11678
 Alpha virt. eigenvalues --    0.13560   0.13890   0.15016   0.19775   0.24471
 Alpha virt. eigenvalues --    0.28626   0.28896   0.31500   0.33815   0.34371
 Alpha virt. eigenvalues --    0.42702   0.43565   0.52726   0.55704   0.57706
 Alpha virt. eigenvalues --    0.57851   0.59186   0.60018   0.60147   0.60436
 Alpha virt. eigenvalues --    0.61558   0.64250   0.74030   0.89146   0.93304
 Alpha virt. eigenvalues --    0.95946   0.98554   1.16338   1.24312   1.25612
 Alpha virt. eigenvalues --    1.36922   1.45257   1.45836   1.47264   1.47500
 Alpha virt. eigenvalues --    1.48061   1.50728   1.51239   1.51753   1.60307
 Alpha virt. eigenvalues --    1.66890   1.68330   1.68871   1.72169   1.77920
 Alpha virt. eigenvalues --    1.78464   1.86403   1.99275   2.00472   2.01380
 Alpha virt. eigenvalues --    2.07603   2.12672   2.18506   2.25535   2.27022
 Alpha virt. eigenvalues --    2.33746   2.35965   2.39882   2.42998   2.44212
 Alpha virt. eigenvalues --    2.47030   2.47275   2.48657   2.56821   2.59841
 Alpha virt. eigenvalues --    2.61533   2.67187   2.67603   2.69132   2.69880
 Alpha virt. eigenvalues --    2.79077   2.84993   3.04265   3.28195   3.76618
 Alpha virt. eigenvalues --    3.77594   3.80322   3.80893   3.81661   4.11364
 Alpha virt. eigenvalues --    4.29760  23.83993  23.92074  23.92861
     Molecular Orbital Coefficients:
                           1         2         3         4         5
                           O         O         O         O         O
     Eigenvalues --   -10.16580 -10.15706 -10.15698  -0.77998  -0.68090
   1 1   C  1S          0.56291  -0.00660  -0.00732  -0.08072  -0.00008
   2        2S          0.46325  -0.00544  -0.00604  -0.12478  -0.00013
   3        2PX         0.00000  -0.00044   0.00038  -0.00017   0.06505
   4        2PY        -0.00023  -0.00030  -0.00033  -0.01780   0.00019
   5        2PZ         0.00000   0.00000   0.00000   0.00000   0.00000
   6        3S          0.01834   0.00005   0.00006   0.32686   0.00032
   7        3PX        -0.00001   0.00093  -0.00079  -0.00022   0.10330
   8        3PY         0.00166   0.00085   0.00094  -0.03566   0.00019
   9        3PZ         0.00000   0.00000   0.00000   0.00000   0.00000
  10        4S         -0.01287   0.00164   0.00188   0.18439   0.00022
  11        4PX        -0.00001  -0.00120   0.00106  -0.00001   0.03774
  12        4PY         0.00224  -0.00024  -0.00027  -0.01223   0.00011
  13        4PZ         0.00000   0.00000   0.00000   0.00000   0.00000
  14        5D 0        0.00069   0.00044   0.00049  -0.00616   0.00001
  15        5D+1        0.00000   0.00000   0.00000   0.00000   0.00000
  16        5D-1        0.00000   0.00000   0.00000   0.00000   0.00000
  17        5D+2       -0.00052  -0.00029  -0.00032   0.00369   0.00000
  18        5D-2        0.00003  -0.00061   0.00052   0.00008  -0.01506
  19 2   C  1S          0.00685  -0.03758   0.56167  -0.06008  -0.07789
  20        2S          0.00562  -0.03090   0.46220  -0.09280  -0.12086
  21        2PX        -0.00041  -0.00005  -0.00012  -0.02229   0.01177
  22        2PY         0.00030   0.00003   0.00009   0.01155   0.00031
  23        2PZ         0.00000   0.00000   0.00000   0.00000   0.00000
  24        3S          0.00037  -0.00153   0.01844   0.24206   0.32029
  25        3PX         0.00107   0.00029   0.00133  -0.03984   0.01295
  26        3PY        -0.00077  -0.00014  -0.00090   0.02173   0.00341
  27        3PZ         0.00000   0.00000   0.00000   0.00000   0.00000
  28        4S          0.00471   0.00186  -0.00721   0.11957   0.19132
  29        4PX        -0.00141  -0.00100   0.00126  -0.00697   0.00970
  30        4PY         0.00101  -0.00041  -0.00031   0.00296  -0.00038
  31        4PZ         0.00000   0.00000   0.00000   0.00000   0.00000
  32        5D 0        0.00041   0.00001   0.00030  -0.00429   0.00053
  33        5D+1        0.00000   0.00000   0.00000   0.00000   0.00000
  34        5D-1        0.00000   0.00000   0.00000   0.00000   0.00000
  35        5D+2       -0.00020  -0.00001  -0.00019   0.00363  -0.00217
  36        5D-2        0.00075   0.00010   0.00055  -0.00607   0.00028
  37 3   C  1S          0.00705   0.56167   0.03750  -0.06038   0.07780
  38        2S          0.00578   0.46220   0.03088  -0.09326   0.12073
  39        2PX         0.00042   0.00011   0.00007   0.02244   0.01191
  40        2PY         0.00031   0.00009   0.00004   0.01157  -0.00009
  41        2PZ         0.00000   0.00000   0.00000   0.00000   0.00000
  42        3S          0.00037   0.01847   0.00093   0.24331  -0.31997
  43        3PX        -0.00111  -0.00127  -0.00047   0.03999   0.01319
  44        3PY        -0.00079  -0.00088  -0.00026   0.02176  -0.00307
  45        3PZ         0.00000   0.00000   0.00000   0.00000   0.00000
  46        4S          0.00471  -0.00736   0.00089   0.11994  -0.19082
  47        4PX         0.00141  -0.00138   0.00082   0.00693   0.00984
  48        4PY         0.00099  -0.00026  -0.00045   0.00297   0.00061
  49        4PZ         0.00000   0.00000   0.00000   0.00000   0.00000
  50        5D 0        0.00042   0.00028   0.00005  -0.00434  -0.00050
  51        5D+1        0.00000   0.00000   0.00000   0.00000   0.00000
  52        5D-1        0.00000   0.00000   0.00000   0.00000   0.00000
  53        5D+2       -0.00021  -0.00018  -0.00004   0.00365   0.00215
  54        5D-2       -0.00076  -0.00050  -0.00017   0.00612   0.00021
  55 4   H  1S         -0.00004  -0.00007  -0.00008   0.05114   0.00028
  56        2S         -0.00211  -0.00055  -0.00063   0.05680   0.00033
  57        3S          0.00150   0.00009   0.00010   0.00071   0.00003
  58        4PX         0.00001  -0.00005   0.00005  -0.00004   0.00327
  59        4PY         0.00112   0.00011   0.00012  -0.00753  -0.00004
  60        4PZ         0.00178   0.00024   0.00027  -0.00911  -0.00005
  61 5   H  1S         -0.00004  -0.00007  -0.00008   0.05114   0.00028
  62        2S         -0.00211  -0.00055  -0.00063   0.05680   0.00033
  63        3S          0.00150   0.00009   0.00010   0.00071   0.00003
  64        4PX         0.00001  -0.00005   0.00005  -0.00004   0.00327
  65        4PY         0.00112   0.00011   0.00012  -0.00753  -0.00004
  66        4PZ        -0.00178  -0.00024  -0.00027   0.00911   0.00005
  67 6   H  1S         -0.00003   0.00012  -0.00003   0.03648  -0.06735
  68        2S         -0.00108  -0.00283  -0.00018   0.04252  -0.07823
  69        3S         -0.00014   0.00118   0.00049   0.00236  -0.00828
  70        4PX        -0.00035  -0.00166  -0.00016   0.00777  -0.00997
  71        4PY         0.00025   0.00132   0.00014  -0.00391   0.00740
  72        4PZ         0.00000   0.00000   0.00000   0.00000   0.00000
  73 7   H  1S         -0.00007   0.00007   0.00007   0.03878  -0.06137
  74        2S         -0.00083  -0.00241  -0.00076   0.04453  -0.07273
  75        3S          0.00018   0.00149  -0.00006   0.00102  -0.00817
  76        4PX         0.00007   0.00008  -0.00009   0.00139   0.00011
  77        4PY        -0.00016  -0.00118  -0.00010   0.00553  -0.00705
  78        4PZ        -0.00028  -0.00168  -0.00024   0.00681  -0.00948
  79 8   H  1S         -0.00007   0.00007   0.00007   0.03878  -0.06137
  80        2S         -0.00083  -0.00241  -0.00076   0.04453  -0.07273
  81        3S          0.00018   0.00149  -0.00006   0.00102  -0.00817
  82        4PX         0.00007   0.00008  -0.00009   0.00139   0.00011
  83        4PY        -0.00016  -0.00118  -0.00010   0.00553  -0.00705
  84        4PZ         0.00028   0.00168   0.00024  -0.00681   0.00948
  85 9   H  1S         -0.00003  -0.00005   0.00011   0.03645   0.06751
  86        2S         -0.00108   0.00019  -0.00283   0.04248   0.07833
  87        3S         -0.00016   0.00032   0.00124   0.00239   0.00828
  88        4PX         0.00035  -0.00007   0.00166  -0.00775  -0.00994
  89        4PY         0.00025  -0.00004   0.00134  -0.00393  -0.00745
  90        4PZ         0.00000   0.00000   0.00000   0.00000   0.00000
  91 10  H  1S         -0.00007   0.00006   0.00007   0.03868   0.06139
  92        2S         -0.00081  -0.00043  -0.00248   0.04435   0.07273
  93        3S          0.00018  -0.00026   0.00148   0.00099   0.00817
  94        4PX        -0.00008   0.00010  -0.00007  -0.00136   0.00014
  95        4PY        -0.00015   0.00006  -0.00118   0.00549   0.00703
  96        4PZ         0.00028   0.00001   0.00170  -0.00680  -0.00950
  97 11  H  1S         -0.00007   0.00006   0.00007   0.03868   0.06139
  98        2S         -0.00081  -0.00043  -0.00248   0.04435   0.07273
  99        3S          0.00018  -0.00026   0.00148   0.00099   0.00817
 100        4PX        -0.00008   0.00010  -0.00007  -0.00135   0.00014
 101        4PY        -0.00015   0.00006  -0.00118   0.00549   0.00703
 102        4PZ        -0.00028  -0.00001  -0.00170   0.00680   0.00950
                           6         7         8         9        10
                           O         O         O         O         O
     Eigenvalues --    -0.58510  -0.45729  -0.43710  -0.39961  -0.38200
   1 1   C  1S         -0.07150   0.00000  -0.01315   0.00006   0.00000
   2        2S         -0.11159   0.00000  -0.02069   0.00009   0.00000
   3        2PX         0.00005   0.00000  -0.00153  -0.11346   0.00001
   4        2PY         0.06025   0.00000  -0.11205   0.00042   0.00000
   5        2PZ         0.00000   0.14079   0.00000   0.00000  -0.00107
   6        3S          0.30327   0.00000   0.05933  -0.00020   0.00000
   7        3PX         0.00000   0.00000  -0.00215  -0.16750   0.00001
   8        3PY         0.08538   0.00000  -0.16569   0.00069   0.00000
   9        3PZ         0.00000   0.20733   0.00000   0.00000  -0.00149
  10        4S          0.20408   0.00000   0.05685  -0.00074   0.00000
  11        4PX         0.00017   0.00000  -0.00155  -0.11468   0.00001
  12        4PY         0.04342   0.00000  -0.10801   0.00036   0.00000
  13        4PZ         0.00000   0.13790   0.00000   0.00000  -0.00086
  14        5D 0        0.00914   0.00000  -0.00734  -0.00006   0.00000
  15        5D+1        0.00000   0.00010   0.00000   0.00000   0.01797
  16        5D-1        0.00000   0.00618   0.00000   0.00000  -0.00006
  17        5D+2       -0.00418   0.00000  -0.01033   0.00030   0.00000
  18        5D-2        0.00012   0.00000   0.00007   0.00137   0.00000
  19 2   C  1S          0.04474   0.00000   0.00501  -0.00163   0.00000
  20        2S          0.06969   0.00000   0.00783  -0.00254   0.00000
  21        2PX        -0.04317   0.00000  -0.11951   0.00615   0.00000
  22        2PY         0.04634   0.00000  -0.05904  -0.14268   0.00001
  23        2PZ         0.00000   0.10517   0.00000   0.00001   0.14861
  24        3S         -0.18595   0.00000  -0.01950   0.00488   0.00000
  25        3PX        -0.06384   0.00000  -0.17266   0.00928   0.00000
  26        3PY         0.06843   0.00000  -0.08495  -0.20744   0.00001
  27        3PZ         0.00000   0.15329   0.00000   0.00001   0.21340
  28        4S         -0.12973   0.00000  -0.03455   0.02410   0.00000
  29        4PX        -0.02611   0.00000  -0.10324   0.00264   0.00000
  30        4PY         0.03373   0.00000  -0.05983  -0.13313   0.00001
  31        4PZ         0.00000   0.08890   0.00000   0.00001   0.15693
  32        5D 0       -0.00638   0.00000   0.00366   0.01480   0.00000
  33        5D+1        0.00000  -0.00798   0.00000   0.00000   0.00165
  34        5D-1        0.00000  -0.00549   0.00000   0.00000  -0.01771
  35        5D+2        0.00146   0.00000   0.00449  -0.00494   0.00000
  36        5D-2       -0.01046   0.00000  -0.01073   0.00042   0.00000
  37 3   C  1S          0.04445   0.00000   0.00499   0.00125   0.00000
  38        2S          0.06923   0.00000   0.00780   0.00194   0.00000
  39        2PX         0.04354   0.00000   0.12059   0.00408   0.00000
  40        2PY         0.04669   0.00000  -0.05616   0.14520   0.00000
  41        2PZ         0.00000   0.10461   0.00000  -0.00001  -0.14824
  42        3S         -0.18470   0.00000  -0.01934  -0.00318   0.00000
  43        3PX         0.06429   0.00000   0.17415   0.00623   0.00000
  44        3PY         0.06888   0.00000  -0.08086   0.21106  -0.00001
  45        3PZ         0.00000   0.15254   0.00000  -0.00001  -0.21301
  46        4S         -0.12878   0.00000  -0.03548  -0.02270   0.00000
  47        4PX         0.02635   0.00000   0.10409   0.00048   0.00000
  48        4PY         0.03401   0.00000  -0.05756   0.13565   0.00000
  49        4PZ         0.00000   0.08811   0.00000  -0.00001  -0.15672
  50        5D 0       -0.00632   0.00000   0.00334  -0.01491   0.00000
  51        5D+1        0.00000   0.00797   0.00000   0.00000   0.00165
  52        5D-1        0.00000  -0.00540   0.00000   0.00000   0.01758
  53        5D+2        0.00143   0.00000   0.00447   0.00507   0.00000
  54        5D-2        0.01039   0.00000   0.01079   0.00018   0.00000
  55 4   H  1S          0.08685   0.08928  -0.04063  -0.00026  -0.00065
  56        2S          0.10653   0.10947  -0.05380  -0.00024  -0.00096
  57        3S          0.02133   0.04379  -0.02300  -0.00009  -0.00050
  58        4PX        -0.00006  -0.00002  -0.00008  -0.00685   0.00083
  59        4PY        -0.00584  -0.00836  -0.00206   0.00004   0.00007
  60        4PZ        -0.01191  -0.00282   0.00539   0.00000   0.00005
  61 5   H  1S          0.08685  -0.08928  -0.04063  -0.00026   0.00065
  62        2S          0.10653  -0.10947  -0.05380  -0.00024   0.00096
  63        3S          0.02133  -0.04379  -0.02300  -0.00010   0.00051
  64        4PX        -0.00006   0.00002  -0.00008  -0.00685  -0.00083
  65        4PY        -0.00584   0.00836  -0.00206   0.00004  -0.00007
  66        4PZ         0.01191  -0.00282  -0.00539   0.00000   0.00005
  67 6   H  1S         -0.04560   0.00000  -0.11259   0.06881   0.00000
  68        2S         -0.05854   0.00000  -0.14683   0.09402  -0.00001
  69        3S         -0.01381   0.00000  -0.06602   0.05195   0.00000
  70        4PX        -0.00389   0.00000  -0.00782   0.00839   0.00000
  71        4PY         0.00676   0.00000   0.00646   0.00315   0.00000
  72        4PZ         0.00000   0.00648   0.00000   0.00000  -0.00916
  73 7   H  1S         -0.05956  -0.06778   0.01817  -0.07483   0.10593
  74        2S         -0.07262  -0.08824   0.02312  -0.10076   0.14264
  75        3S         -0.01633  -0.03933   0.01168  -0.05125   0.07812
  76        4PX         0.00154  -0.00120   0.00748   0.00010  -0.00013
  77        4PY        -0.00350  -0.00669  -0.00167   0.00215   0.00900
  78        4PZ        -0.00809  -0.00245   0.00231  -0.00902   0.00328
  79 8   H  1S         -0.05956   0.06778   0.01817  -0.07485  -0.10592
  80        2S         -0.07262   0.08824   0.02312  -0.10078  -0.14263
  81        3S         -0.01633   0.03933   0.01168  -0.05126  -0.07811
  82        4PX         0.00154   0.00120   0.00748   0.00010   0.00013
  83        4PY        -0.00350   0.00669  -0.00167   0.00214  -0.00900
  84        4PZ         0.00809  -0.00245  -0.00231   0.00902   0.00328
  85 9   H  1S         -0.04562  -0.00001  -0.11328  -0.06617  -0.00001
  86        2S         -0.05850  -0.00001  -0.14781  -0.09032  -0.00002
  87        3S         -0.01381  -0.00001  -0.06650  -0.04995  -0.00001
  88        4PX         0.00384   0.00000   0.00791   0.00817   0.00000
  89        4PY         0.00679   0.00000   0.00639  -0.00320   0.00000
  90        4PZ         0.00000   0.00651   0.00000   0.00000   0.00918
  91 10  H  1S         -0.05958   0.06833   0.01976   0.07378   0.10639
  92        2S         -0.07262   0.08882   0.02515   0.09937   0.14326
  93        3S         -0.01635   0.03946   0.01253   0.05043   0.07835
  94        4PX        -0.00156  -0.00119  -0.00743   0.00029   0.00017
  95        4PY        -0.00348   0.00671  -0.00169  -0.00211   0.00901
  96        4PZ         0.00808  -0.00248  -0.00252  -0.00889  -0.00334
  97 11  H  1S         -0.05958  -0.06832   0.01978   0.07379  -0.10638
  98        2S         -0.07263  -0.08881   0.02518   0.09939  -0.14324
  99        3S         -0.01635  -0.03945   0.01254   0.05044  -0.07834
 100        4PX        -0.00156   0.00119  -0.00743   0.00029  -0.00017
 101        4PY        -0.00348  -0.00671  -0.00168  -0.00211  -0.00901
 102        4PZ        -0.00808  -0.00248   0.00252   0.00889  -0.00334
                          11        12        13        14        15
                           O         O         O         V         V
     Eigenvalues --    -0.34041  -0.33849  -0.32944   0.04404   0.08222
   1 1   C  1S         -0.00276   0.00618   0.00000  -0.02570   0.00193
   2        2S         -0.00441   0.00987   0.00000  -0.03990   0.00303
   3        2PX        -0.13604  -0.06204   0.00000   0.00022   0.03861
   4        2PY        -0.06396   0.14214   0.00000   0.06351  -0.00330
   5        2PZ         0.00000   0.00000   0.15038   0.00000   0.00000
   6        3S          0.01483  -0.03293   0.00000   0.08175  -0.00624
   7        3PX        -0.19970  -0.09119   0.00000   0.00021   0.06417
   8        3PY        -0.09243   0.20563   0.00000   0.07787  -0.00257
   9        3PZ         0.00000   0.00000   0.21259   0.00000   0.00000
  10        4S          0.01039  -0.02548   0.00000   0.89180  -0.06249
  11        4PX        -0.13025  -0.06002   0.00000   0.00202   0.26837
  12        4PY        -0.06986   0.15679   0.00000   0.38714  -0.01521
  13        4PZ         0.00000   0.00000   0.15981  -0.00001  -0.00001
  14        5D 0       -0.00764   0.01686   0.00000  -0.00323   0.00034
  15        5D+1        0.00000   0.00000   0.00025   0.00000   0.00000
  16        5D-1        0.00000   0.00000   0.03130   0.00000   0.00000
  17        5D+2        0.00937  -0.02065   0.00000   0.00086  -0.00107
  18        5D-2        0.02131   0.00976   0.00000  -0.00001   0.00595
  19 2   C  1S          0.00598   0.01412   0.00000  -0.03190   0.03881
  20        2S          0.00949   0.02243   0.00000  -0.04967   0.06057
  21        2PX         0.12573   0.09089   0.00000   0.04077  -0.05164
  22        2PY         0.05573  -0.11005   0.00000  -0.03276  -0.00623
  23        2PZ         0.00000   0.00000  -0.09422   0.00000   0.00000
  24        3S         -0.02739  -0.06709   0.00000   0.09425  -0.11970
  25        3PX         0.18075   0.13418   0.00000   0.05061  -0.04292
  26        3PY         0.07701  -0.15764   0.00001  -0.04118  -0.00598
  27        3PZ         0.00001   0.00000  -0.13165   0.00000   0.00000
  28        4S         -0.03770  -0.06912   0.00000   1.06825  -1.39386
  29        4PX         0.14146   0.09080   0.00000   0.19553  -0.28024
  30        4PY         0.06358  -0.11783   0.00001  -0.22053  -0.05865
  31        4PZ         0.00000   0.00000  -0.09661   0.00002   0.00002
  32        5D 0       -0.00893   0.01023   0.00000  -0.00135   0.00106
  33        5D+1        0.00000   0.00000  -0.00915   0.00000   0.00000
  34        5D-1        0.00000   0.00000   0.02242   0.00000   0.00000
  35        5D+2        0.01329  -0.01212   0.00000  -0.00355  -0.00415
  36        5D-2        0.01956   0.00493   0.00000  -0.00772  -0.00143
  37 3   C  1S         -0.01472   0.00478   0.00000  -0.03173  -0.04076
  38        2S         -0.02337   0.00760   0.00000  -0.04942  -0.06361
  39        2PX         0.15051   0.03425   0.00000  -0.04083  -0.04938
  40        2PY         0.04555  -0.11274   0.00000  -0.03285  -0.00150
  41        2PZ         0.00000   0.00000  -0.09535   0.00000   0.00000
  42        3S          0.06924  -0.02353   0.00000   0.09346   0.12520
  43        3PX         0.21890   0.04704   0.00000  -0.05075  -0.04002
  44        3PY         0.06696  -0.15944   0.00000  -0.04132  -0.00076
  45        3PZ         0.00000   0.00000  -0.13338   0.00000   0.00000
  46        4S          0.07685  -0.01658   0.00000   1.06754   1.46355
  47        4PX         0.16040   0.04689   0.00000  -0.19652  -0.26425
  48        4PY         0.04571  -0.12399   0.00000  -0.22234   0.01702
  49        4PZ         0.00000   0.00000  -0.09827  -0.00001   0.00001
  50        5D 0       -0.00171   0.01330   0.00000  -0.00132  -0.00197
  51        5D+1        0.00000   0.00000   0.00930   0.00000   0.00000
  52        5D-1        0.00000   0.00000   0.02264   0.00000   0.00000
  53        5D+2        0.00019  -0.01819   0.00000  -0.00370   0.00526
  54        5D-2        0.01654   0.01148   0.00000   0.00779  -0.00233
  55 4   H  1S         -0.03449   0.07583   0.12024  -0.00163   0.00128
  56        2S         -0.05030   0.11100   0.17988  -0.02269  -0.00005
  57        3S         -0.03141   0.06988   0.12495  -0.55356   0.04687
  58        4PX        -0.00759  -0.00354  -0.00006  -0.00005   0.00907
  59        4PY        -0.00116   0.00271  -0.00926  -0.00237   0.00072
  60        4PZ         0.00353  -0.00770  -0.00296  -0.00792   0.00055
  61 5   H  1S         -0.03449   0.07583  -0.12024  -0.00162   0.00128
  62        2S         -0.05029   0.11099  -0.17989  -0.02269  -0.00005
  63        3S         -0.03141   0.06988  -0.12496  -0.55356   0.04686
  64        4PX        -0.00759  -0.00354   0.00006  -0.00006   0.00907
  65        4PY        -0.00116   0.00271   0.00926  -0.00237   0.00072
  66        4PZ        -0.00353   0.00770  -0.00296   0.00792  -0.00055
  67 6   H  1S         -0.07705  -0.09793   0.00000  -0.01707   0.00575
  68        2S         -0.11232  -0.14088   0.00000  -0.04078   0.05509
  69        3S         -0.07256  -0.09243   0.00000  -0.48355  -0.90348
  70        4PX         0.00091  -0.00762   0.00000   0.00441   0.00998
  71        4PY         0.00878   0.00035   0.00000  -0.00539  -0.00935
  72        4PZ         0.00000   0.00000  -0.00609   0.00000   0.00000
  73 7   H  1S         -0.01493   0.06019   0.08037   0.00109  -0.01868
  74        2S         -0.02464   0.08677   0.12220  -0.03117  -0.01989
  75        3S         -0.01889   0.06062   0.08961  -0.46938  -0.60352
  76        4PX         0.00849   0.00290   0.00104  -0.00505   0.00493
  77        4PY         0.00127  -0.00278   0.00570   0.00157   0.00419
  78        4PZ        -0.00212   0.00610   0.00180   0.00585   0.00571
  79 8   H  1S         -0.01493   0.06019  -0.08037   0.00109  -0.01868
  80        2S         -0.02463   0.08677  -0.12220  -0.03116  -0.01989
  81        3S         -0.01889   0.06062  -0.08962  -0.46937  -0.60353
  82        4PX         0.00849   0.00290  -0.00104  -0.00505   0.00493
  83        4PY         0.00127  -0.00278  -0.00570   0.00157   0.00419
  84        4PZ         0.00212  -0.00611   0.00180  -0.00585  -0.00571
  85 9   H  1S          0.12522  -0.00741   0.00001  -0.01710  -0.00523
  86        2S          0.18096  -0.00931   0.00002  -0.04045  -0.05585
  87        3S          0.11744  -0.00648   0.00001  -0.48407   0.94426
  88        4PX        -0.00519   0.00588   0.00000  -0.00436   0.01072
  89        4PY        -0.00618  -0.00637   0.00000  -0.00550   0.01030
  90        4PZ         0.00000   0.00000  -0.00600   0.00000   0.00000
  91 10  H  1S         -0.03578   0.05144  -0.07951   0.00076   0.01762
  92        2S         -0.04940   0.07664  -0.12100  -0.03104   0.02092
  93        3S         -0.03295   0.05488  -0.08870  -0.47031   0.52965
  94        4PX         0.00783   0.00453   0.00100   0.00508   0.00465
  95        4PY         0.00123  -0.00286  -0.00562   0.00157  -0.00319
  96        4PZ         0.00329  -0.00569   0.00185  -0.00596   0.00461
  97 11  H  1S         -0.03580   0.05145   0.07949   0.00077   0.01762
  98        2S         -0.04944   0.07665   0.12099  -0.03102   0.02093
  99        3S         -0.03298   0.05489   0.08869  -0.47027   0.52964
 100        4PX         0.00783   0.00453  -0.00100   0.00508   0.00465
 101        4PY         0.00123  -0.00286   0.00562   0.00157  -0.00319
 102        4PZ        -0.00329   0.00569   0.00184   0.00596  -0.00461
                          16        17        18        19        20
                           V         V         V         V         V
     Eigenvalues --     0.08589   0.08773   0.11678   0.13560   0.13890
   1 1   C  1S         -0.03410   0.00000  -0.03614   0.00000   0.00001
   2        2S         -0.05323   0.00000  -0.05773   0.00000   0.00001
   3        2PX         0.00224   0.00000   0.00082  -0.00005  -0.03554
   4        2PY         0.05710   0.00000   0.02263   0.00000   0.00077
   5        2PZ        -0.00001  -0.10166   0.00001   0.14066  -0.00019
   6        3S          0.10563  -0.00001   0.12771  -0.00001   0.00018
   7        3PX         0.00330   0.00000   0.00092  -0.00009  -0.06744
   8        3PY         0.04686   0.00000  -0.02018   0.00000   0.00073
   9        3PZ        -0.00001  -0.10020   0.00001   0.13066  -0.00018
  10        4S          1.15777  -0.00007   1.36156  -0.00005  -0.00132
  11        4PX         0.01679   0.00000   0.00736  -0.00014  -0.12722
  12        4PY         0.24060  -0.00003   0.41091  -0.00003   0.00759
  13        4PZ        -0.00005  -0.57963   0.00006   1.29078  -0.00177
  14        5D 0       -0.00478   0.00000  -0.00415   0.00000  -0.00021
  15        5D+1        0.00000   0.00025   0.00000  -0.00015   0.00000
  16        5D-1        0.00000   0.02738   0.00000  -0.01119   0.00002
  17        5D+2        0.02065   0.00000  -0.01739   0.00000   0.00011
  18        5D-2        0.00027   0.00000   0.00027  -0.00002  -0.01339
  19 2   C  1S          0.01930   0.00000   0.02105  -0.00002  -0.01287
  20        2S          0.03004   0.00000   0.03289  -0.00003  -0.02030
  21        2PX         0.02436   0.00000  -0.03861  -0.00011  -0.08198
  22        2PY         0.07391   0.00000  -0.07811  -0.00012  -0.09401
  23        2PZ        -0.00001  -0.09600   0.00001  -0.08042   0.00012
  24        3S         -0.05468   0.00000  -0.06377   0.00006   0.04468
  25        3PX         0.03101   0.00000  -0.04065  -0.00010  -0.07597
  26        3PY         0.06465   0.00000  -0.07621  -0.00012  -0.09310
  27        3PZ         0.00000  -0.09313   0.00001  -0.07600   0.00012
  28        4S         -0.70140   0.00002  -0.61311   0.00050   0.36617
  29        4PX         0.19090   0.00001  -0.25974  -0.00076  -0.57720
  30        4PY         0.40111   0.00000  -0.64789  -0.00081  -0.60097
  31        4PZ        -0.00003  -0.46467   0.00006  -0.81505   0.00121
  32        5D 0        0.00903   0.00000  -0.01766  -0.00001  -0.01141
  33        5D+1        0.00000   0.00844   0.00000  -0.01398   0.00001
  34        5D-1        0.00000  -0.01923   0.00000  -0.00259   0.00000
  35        5D+2       -0.01028   0.00000   0.01158   0.00001   0.00882
  36        5D-2       -0.00892   0.00000   0.00862   0.00002   0.01689
  37 3   C  1S          0.01510   0.00000   0.02067   0.00002   0.01281
  38        2S          0.02351   0.00000   0.03229   0.00003   0.02019
  39        2PX        -0.03008   0.00000   0.03983  -0.00012  -0.08068
  40        2PY         0.07425   0.00000  -0.07827   0.00013   0.09402
  41        2PZ         0.00000  -0.09665  -0.00002  -0.07886   0.00009
  42        3S         -0.04193   0.00000  -0.06266  -0.00006  -0.04419
  43        3PX        -0.03613   0.00000   0.04213  -0.00011  -0.07444
  44        3PY         0.06500   0.00000  -0.07651   0.00013   0.09379
  45        3PZ         0.00000  -0.09407  -0.00002  -0.07444   0.00009
  46        4S         -0.54699   0.00007  -0.59582  -0.00044  -0.36340
  47        4PX        -0.22048   0.00000   0.26690  -0.00081  -0.56505
  48        4PY         0.40623  -0.00001  -0.64715   0.00089   0.59552
  49        4PZ         0.00001  -0.46666  -0.00017  -0.80462   0.00100
  50        5D 0        0.00889   0.00000  -0.01757   0.00002   0.01128
  51        5D+1        0.00000  -0.00862   0.00000   0.01416  -0.00002
  52        5D-1        0.00000  -0.01952   0.00000  -0.00202   0.00000
  53        5D+2       -0.00992   0.00000   0.01166  -0.00001  -0.00915
  54        5D-2        0.00869   0.00000  -0.00893   0.00002   0.01673
  55 4   H  1S         -0.02121   0.03004  -0.00124  -0.00198  -0.00027
  56        2S          0.01095   0.03261  -0.03376  -0.05089  -0.00131
  57        3S         -0.87386   0.98003  -0.77064  -1.46271  -0.00214
  58        4PX         0.00039   0.00009   0.00006  -0.00012  -0.00366
  59        4PY        -0.01311   0.01155  -0.00336  -0.01035   0.00008
  60        4PZ        -0.00960   0.01450  -0.00717  -0.01579  -0.00008
  61 5   H  1S         -0.02121  -0.03003  -0.00124   0.00198  -0.00028
  62        2S          0.01094  -0.03260  -0.03376   0.05091  -0.00143
  63        3S         -0.87399  -0.97992  -0.77053   1.46276  -0.00622
  64        4PX         0.00039  -0.00009   0.00006   0.00011  -0.00366
  65        4PY        -0.01311  -0.01155  -0.00336   0.01035   0.00005
  66        4PZ         0.00960   0.01450   0.00717  -0.01579   0.00013
  67 6   H  1S         -0.00461   0.00000   0.03029  -0.00003  -0.02281
  68        2S          0.00706  -0.00001   0.05381  -0.00005  -0.02539
  69        3S         -0.51133   0.00001   1.34082  -0.00191  -1.34152
  70        4PX         0.00882   0.00000  -0.02071   0.00003   0.02014
  71        4PY        -0.00880   0.00000   0.00815  -0.00002  -0.01422
  72        4PZ         0.00000  -0.00203   0.00000  -0.00727   0.00001
  73 7   H  1S          0.00968  -0.01424  -0.00967   0.00267   0.01257
  74        2S         -0.01169   0.02530  -0.06098  -0.05411  -0.01450
  75        3S          0.67402  -0.80642  -0.24798  -0.80265   0.87720
  76        4PX        -0.00183   0.00070  -0.00008  -0.00761  -0.00620
  77        4PY        -0.00853   0.01356  -0.00252   0.00590  -0.00665
  78        4PZ        -0.01061   0.01540   0.00762   0.00754  -0.01298
  79 8   H  1S          0.00969   0.01424  -0.00967  -0.00263   0.01258
  80        2S         -0.01170  -0.02530  -0.06097   0.05410  -0.01465
  81        3S          0.67408   0.80632  -0.24758   0.80505   0.87535
  82        4PX        -0.00183  -0.00070  -0.00008   0.00760  -0.00622
  83        4PY        -0.00853  -0.01356  -0.00252  -0.00591  -0.00664
  84        4PZ         0.01061   0.01540  -0.00761   0.00758   0.01297
  85 9   H  1S         -0.00498   0.00000   0.02972   0.00003   0.02273
  86        2S          0.00109   0.00000   0.05260   0.00006   0.02676
  87        3S         -0.40841  -0.00012   1.33967   0.00160   1.35645
  88        4PX        -0.00773   0.00000   0.02060   0.00002   0.02013
  89        4PY        -0.00780   0.00000   0.00816   0.00002   0.01457
  90        4PZ         0.00000  -0.00190   0.00000  -0.00745   0.00001
  91 10  H  1S          0.01155   0.01373  -0.00956  -0.00198  -0.01243
  92        2S         -0.00995  -0.02626  -0.06080   0.05603   0.01405
  93        3S          0.73494   0.80159  -0.23943   0.82020  -0.88072
  94        4PX         0.00227   0.00063   0.00017  -0.00754  -0.00620
  95        4PY        -0.00887  -0.01342  -0.00258  -0.00616   0.00658
  96        4PZ         0.01118   0.01542  -0.00761   0.00775  -0.01308
  97 11  H  1S          0.01155  -0.01373  -0.00956   0.00195  -0.01243
  98        2S         -0.00995   0.02627  -0.06079  -0.05601   0.01420
  99        3S          0.73499  -0.80153  -0.23947  -0.82238  -0.87843
 100        4PX         0.00227  -0.00063   0.00017   0.00753  -0.00622
 101        4PY        -0.00887   0.01342  -0.00258   0.00618   0.00656
 102        4PZ        -0.01118   0.01542   0.00762   0.00778   0.01306
                          21        22        23        24        25
                           V         V         V         V         V
     Eigenvalues --     0.15016   0.19775   0.24471   0.28626   0.28896
   1 1   C  1S         -0.00001  -0.03614   0.00061   0.00801   0.00000
   2        2S         -0.00001  -0.05619   0.00091   0.01605   0.00000
   3        2PX        -0.00001   0.00253   0.18374   0.00280   0.00001
   4        2PY        -0.00001  -0.14397   0.00016   0.08240   0.00001
   5        2PZ        -0.00112   0.00000   0.00000   0.00000   0.00023
   6        3S          0.00002   0.06412  -0.00031  -0.10614  -0.00003
   7        3PX        -0.00001   0.00283   0.21443   0.00360   0.00002
   8        3PY        -0.00001  -0.15650  -0.00141   0.20341   0.00003
   9        3PZ        -0.00085   0.00000   0.00000  -0.00001   0.00200
  10        4S          0.00041   2.50139  -0.05852   0.04073  -0.00003
  11        4PX        -0.00005   0.01758   2.38274   0.03445   0.00010
  12        4PY        -0.00016  -2.09079   0.03960  -0.52489   0.00001
  13        4PZ        -0.01135   0.00002  -0.00004   0.00002   0.01104
  14        5D 0        0.00000   0.02478  -0.00012  -0.01748   0.00000
  15        5D+1       -0.02554   0.00000   0.00000   0.00000  -0.01875
  16        5D-1       -0.00006   0.00000   0.00000   0.00000  -0.00012
  17        5D+2        0.00000  -0.00527  -0.00025   0.03526   0.00000
  18        5D-2        0.00000   0.00069   0.04869   0.00058   0.00000
  19 2   C  1S          0.00000   0.01371   0.01386  -0.00845   0.00000
  20        2S          0.00000   0.02062   0.02217  -0.01414   0.00000
  21        2PX        -0.00001   0.07016   0.09755  -0.05767   0.00000
  22        2PY        -0.00003  -0.04576  -0.08666   0.01290   0.00000
  23        2PZ        -0.12508   0.00002   0.00000   0.00000   0.00260
  24        3S          0.00000   0.00396  -0.03515   0.07465   0.00000
  25        3PX        -0.00001   0.08835   0.12860  -0.00895   0.00000
  26        3PY        -0.00003  -0.05455  -0.09329   0.05150  -0.00001
  27        3PZ        -0.12374   0.00002   0.00000   0.00000  -0.02747
  28        4S         -0.00013  -1.39260  -1.04753  -0.47539  -0.00009
  29        4PX         0.00002   1.49561   0.96045   0.20561  -0.00008
  30        4PY        -0.00017  -0.27823  -1.23767   0.75005  -0.00012
  31        4PZ        -0.85839   0.00004   0.00006  -0.00010  -0.93554
  32        5D 0        0.00000  -0.00718  -0.01895   0.01066   0.00000
  33        5D+1        0.00670   0.00000   0.00000   0.00000  -0.01826
  34        5D-1       -0.02822   0.00001   0.00000   0.00000   0.01472
  35        5D+2        0.00001   0.02339  -0.00991  -0.01514  -0.00001
  36        5D-2        0.00000  -0.01482  -0.03769   0.00836   0.00000
  37 3   C  1S          0.00001   0.01359  -0.01425  -0.00892   0.00000
  38        2S          0.00001   0.02041  -0.02273  -0.01485   0.00000
  39        2PX        -0.00001  -0.06747   0.09706   0.05981   0.00000
  40        2PY        -0.00001  -0.04217   0.08773   0.01520   0.00000
  41        2PZ         0.12581  -0.00001   0.00000  -0.00001  -0.00197
  42        3S         -0.00001   0.00458   0.03396   0.07527   0.00000
  43        3PX        -0.00002  -0.08431   0.12900   0.01101   0.00000
  44        3PY        -0.00001  -0.05078   0.09290   0.05331  -0.00001
  45        3PZ         0.12486  -0.00002   0.00001  -0.00001   0.02895
  46        4S         -0.00025  -1.39287   1.11669  -0.44351  -0.00001
  47        4PX        -0.00018  -1.48379   1.01678  -0.16907   0.00009
  48        4PY        -0.00006  -0.25162   1.23947   0.78488   0.00012
  49        4PZ         0.86668  -0.00008   0.00004  -0.00005   0.93664
  50        5D 0        0.00000  -0.00640   0.01905   0.01162   0.00000
  51        5D+1        0.00669   0.00000   0.00000   0.00000  -0.01793
  52        5D-1        0.02821   0.00000   0.00000   0.00000  -0.01399
  53        5D+2        0.00000   0.02373   0.00982  -0.01479   0.00000
  54        5D-2        0.00000   0.01401  -0.03791  -0.00930  -0.00001
  55 4   H  1S         -0.00030   0.01933   0.00063  -0.03436  -0.00180
  56        2S         -0.00101   0.14523  -0.00176   0.00727  -0.01630
  57        3S          0.01389   0.52861  -0.00530  -0.16243   0.01230
  58        4PX        -0.00792   0.00020   0.01045   0.00020  -0.03702
  59        4PY         0.00007  -0.00144  -0.00004   0.00032   0.00020
  60        4PZ         0.00016   0.01128   0.00008  -0.01737   0.00064
  61 5   H  1S          0.00030   0.01933   0.00064  -0.03437   0.00180
  62        2S          0.00105   0.14522  -0.00176   0.00717   0.01634
  63        3S         -0.01403   0.52861  -0.00533  -0.16236  -0.01235
  64        4PX         0.00792   0.00020   0.01044   0.00020   0.03702
  65        4PY        -0.00007  -0.00145  -0.00004   0.00032  -0.00020
  66        4PZ         0.00016  -0.01128  -0.00008   0.01737   0.00064
  67 6   H  1S          0.00000  -0.01014   0.03797  -0.06294   0.00000
  68        2S         -0.00004  -0.28533   0.05049  -0.73912   0.00002
  69        3S         -0.00002  -0.24367  -0.01492   0.63038   0.00000
  70        4PX         0.00000  -0.01876  -0.01096  -0.02678   0.00000
  71        4PY         0.00000  -0.01242   0.00403   0.02567   0.00000
  72        4PZ         0.00494   0.00000   0.00000   0.00000   0.01854
  73 7   H  1S          0.03048  -0.00933   0.00907   0.04250   0.05211
  74        2S          0.03423   0.04206   0.08156   0.50104   0.81559
  75        3S          1.39238  -0.02643   0.50327  -0.10013  -0.41816
  76        4PX        -0.00666  -0.00811   0.01184  -0.00207   0.01564
  77        4PY        -0.01657   0.01011   0.00479   0.02578   0.01922
  78        4PZ        -0.01627   0.00470  -0.01300   0.00812   0.03251
  79 8   H  1S         -0.03047  -0.00932   0.00907   0.04251  -0.05211
  80        2S         -0.03422   0.04206   0.08155   0.50113  -0.81547
  81        3S         -1.39224  -0.02607   0.50320  -0.10002   0.41816
  82        4PX         0.00665  -0.00812   0.01185  -0.00208  -0.01563
  83        4PY         0.01658   0.01010   0.00479   0.02578  -0.01922
  84        4PZ        -0.01627  -0.00470   0.01300  -0.00812   0.03250
  85 9   H  1S          0.00000  -0.01168  -0.03643  -0.06355   0.00000
  86        2S         -0.00003  -0.28997  -0.02276  -0.74169   0.00005
  87        3S          0.00018  -0.23038  -0.00178   0.62491   0.00000
  88        4PX         0.00001   0.01887  -0.01233   0.02662   0.00000
  89        4PY         0.00000  -0.01232  -0.00440   0.02593   0.00000
  90        4PZ        -0.00488   0.00000   0.00000  -0.00001  -0.01828
  91 10  H  1S          0.03010  -0.00990  -0.01036   0.04225   0.04956
  92        2S          0.03202   0.04140  -0.09458   0.49735   0.80187
  93        3S          1.38553  -0.04793  -0.49459  -0.11113  -0.40975
  94        4PX         0.00663   0.00849   0.01163   0.00258  -0.01618
  95        4PY        -0.01653   0.01011  -0.00573   0.02575   0.01952
  96        4PZ         0.01639  -0.00522  -0.01260  -0.00854  -0.03229
  97 11  H  1S         -0.03011  -0.00990  -0.01035   0.04225  -0.04956
  98        2S         -0.03199   0.04132  -0.09445   0.49730  -0.80186
  99        3S         -1.38569  -0.04743  -0.49480  -0.11106   0.40975
 100        4PX        -0.00662   0.00850   0.01163   0.00259   0.01617
 101        4PY         0.01654   0.01010  -0.00573   0.02575  -0.01953
 102        4PZ         0.01639   0.00521   0.01261   0.00853  -0.03228
                          26        27        28        29        30
                           V         V         V         V         V
     Eigenvalues --     0.31500   0.33815   0.34371   0.42702   0.43565
   1 1   C  1S          0.00000   0.00066  -0.01328   0.00000  -0.00002
   2        2S          0.00000   0.00139  -0.02935   0.00000   0.00003
   3        2PX         0.00001  -0.05267  -0.00241   0.00000  -0.02119
   4        2PY         0.00000   0.00180  -0.03741   0.00000  -0.00043
   5        2PZ        -0.03828   0.00000   0.00000  -0.01863  -0.00001
   6        3S          0.00000  -0.00655   0.15642  -0.00001  -0.00233
   7        3PX         0.00002  -0.36239  -0.01652  -0.00009  -0.23499
   8        3PY         0.00000   0.00937  -0.21511   0.00001   0.00086
   9        3PZ        -0.13793   0.00000  -0.00001  -0.01283  -0.00003
  10        4S         -0.00011  -0.05503   1.33906   0.00016   0.01921
  11        4PX         0.00002   0.72038   0.05312   0.00089   2.23669
  12        4PY         0.00006  -0.05029   1.25981   0.00005  -0.01578
  13        4PZ        -0.30916  -0.00005  -0.00010   2.75965  -0.00104
  14        5D 0        0.00000   0.00128  -0.03111   0.00000   0.00041
  15        5D+1       -0.00028   0.00000  -0.00001   0.00105   0.00000
  16        5D-1        0.02320   0.00000   0.00000   0.03897  -0.00001
  17        5D+2        0.00000  -0.00050   0.01135   0.00000   0.00039
  18        5D-2        0.00000   0.05084   0.00212   0.00001   0.01287
  19 2   C  1S          0.00000   0.01664  -0.01336   0.00001   0.01464
  20        2S          0.00000   0.03265  -0.02672   0.00001   0.02566
  21        2PX         0.00001   0.07429  -0.02194  -0.00001  -0.03999
  22        2PY        -0.00001  -0.01919   0.05562   0.00000  -0.02124
  23        2PZ        -0.01048   0.00000  -0.00001   0.01212   0.00000
  24        3S         -0.00002  -0.18065   0.17406  -0.00002  -0.01827
  25        3PX         0.00001   0.27078  -0.16309   0.00000  -0.07981
  26        3PY        -0.00002  -0.10888   0.19800  -0.00003  -0.10677
  27        3PZ        -0.07092  -0.00001  -0.00003   0.00282   0.00001
  28        4S          0.00014  -0.50933   0.15001  -0.00076  -2.02986
  29        4PX        -0.00006  -0.33225   0.42011  -0.00030  -0.55786
  30        4PY        -0.00011   0.69134  -0.73358  -0.00063  -1.24019
  31        4PZ        -0.48390  -0.00004  -0.00003  -1.91361   0.00078
  32        5D 0        0.00000   0.00577  -0.00500   0.00000   0.00237
  33        5D+1        0.01617   0.00000   0.00001  -0.04493   0.00002
  34        5D-1       -0.00453   0.00000   0.00000   0.03512  -0.00002
  35        5D+2        0.00000  -0.00132  -0.00986  -0.00003  -0.04712
  36        5D-2        0.00000   0.01694  -0.02663  -0.00001  -0.00510
  37 3   C  1S          0.00000  -0.01555  -0.01480  -0.00001  -0.01435
  38        2S          0.00000  -0.03044  -0.02955  -0.00001  -0.02517
  39        2PX         0.00000   0.07306   0.02802   0.00000  -0.04022
  40        2PY         0.00000   0.01494   0.05674   0.00001   0.02087
  41        2PZ        -0.01001   0.00000   0.00000   0.01127   0.00000
  42        3S          0.00000   0.16674   0.18866   0.00005   0.01820
  43        3PX         0.00001   0.25653   0.18582   0.00003  -0.08100
  44        3PY        -0.00001   0.09281   0.20691   0.00005   0.10412
  45        3PZ        -0.06913   0.00000   0.00001   0.00225   0.00000
  46        4S         -0.00002   0.49490   0.22574   0.00063   2.00357
  47        4PX         0.00012  -0.29763  -0.44924  -0.00031  -0.57357
  48        4PY         0.00002  -0.62647  -0.77921   0.00048   1.23522
  49        4PZ        -0.43820   0.00007   0.00011  -1.92798   0.00071
  50        5D 0        0.00000  -0.00513  -0.00588   0.00000  -0.00159
  51        5D+1       -0.01708   0.00000   0.00000   0.04589  -0.00002
  52        5D-1       -0.00531   0.00000   0.00000   0.03498  -0.00002
  53        5D+2        0.00000   0.00183  -0.00967   0.00002   0.04713
  54        5D-2        0.00000   0.01423   0.02773   0.00000  -0.00489
  55 4   H  1S          0.09262   0.00214  -0.04028  -0.01293   0.00047
  56        2S          0.68387   0.03618  -0.83920  -1.24722   0.00114
  57        3S         -0.29454  -0.01048   0.16857   0.29587   0.00099
  58        4PX        -0.00083   0.01893   0.00096   0.00040  -0.03638
  59        4PY         0.01373  -0.00118   0.03319   0.06675   0.00001
  60        4PZ        -0.02407  -0.00047   0.00881   0.05179   0.00033
  61 5   H  1S         -0.09261   0.00214  -0.04029   0.01292   0.00044
  62        2S         -0.68382   0.03609  -0.83935   1.24710   0.00015
  63        3S          0.29450  -0.01038   0.16864  -0.29586   0.00121
  64        4PX         0.00083   0.01894   0.00097  -0.00042  -0.03638
  65        4PY        -0.01373  -0.00117   0.03320  -0.06674   0.00005
  66        4PZ        -0.02407   0.00046  -0.00881   0.05179  -0.00037
  67 6   H  1S          0.00001   0.03167  -0.05649  -0.00002  -0.06700
  68        2S          0.00016   0.18018  -0.24621  -0.00048  -1.45683
  69        3S         -0.00008  -0.04137   0.03643   0.00006   0.34145
  70        4PX         0.00000  -0.00633   0.03549  -0.00002  -0.07307
  71        4PY         0.00000  -0.02029   0.01335   0.00000  -0.00934
  72        4PZ        -0.01348   0.00000   0.00000  -0.02837   0.00001
  73 7   H  1S         -0.06635  -0.03677   0.00215  -0.00153   0.00142
  74        2S         -0.57143  -0.52299  -0.21054  -0.76563   0.07411
  75        3S          0.20804   0.13641  -0.04826  -0.09166  -0.20603
  76        4PX         0.01341   0.00432  -0.01805  -0.05186  -0.01223
  77        4PY         0.00116  -0.01280  -0.00465  -0.04355   0.03471
  78        4PZ        -0.02562  -0.00379  -0.00230  -0.03184  -0.00780
  79 8   H  1S          0.06634  -0.03677   0.00215   0.00153   0.00143
  80        2S          0.57141  -0.52312  -0.21066   0.76571   0.07366
  81        3S         -0.20794   0.13651  -0.04827   0.09157  -0.20621
  82        4PX        -0.01341   0.00432  -0.01806   0.05185  -0.01226
  83        4PY        -0.00117  -0.01281  -0.00465   0.04358   0.03468
  84        4PZ        -0.02562   0.00379   0.00230  -0.03185   0.00782
  85 9   H  1S          0.00000  -0.02630  -0.05915   0.00002   0.06749
  86        2S         -0.00001  -0.15981  -0.25143   0.00049   1.46241
  87        3S          0.00002   0.03620   0.03623  -0.00008  -0.34277
  88        4PX         0.00000  -0.00303  -0.03692  -0.00003  -0.07322
  89        4PY         0.00000   0.01937   0.01513   0.00000   0.00876
  90        4PZ        -0.01460   0.00000   0.00000  -0.02792   0.00001
  91 10  H  1S          0.06805   0.03722   0.00493   0.00085  -0.00104
  92        2S          0.60283   0.54236  -0.16558   0.75601  -0.06965
  93        3S         -0.21110  -0.13349  -0.05393   0.09468   0.20413
  94        4PX         0.01288   0.00304   0.01841  -0.05152  -0.01236
  95        4PY        -0.00069   0.01320  -0.00355   0.04370  -0.03477
  96        4PZ        -0.02710  -0.00382   0.00205  -0.03194  -0.00763
  97 11  H  1S         -0.06805   0.03721   0.00491  -0.00084  -0.00104
  98        2S         -0.60292   0.54237  -0.16570  -0.75604  -0.06922
  99        3S          0.21103  -0.13352  -0.05394  -0.09459   0.20431
 100        4PX        -0.01288   0.00303   0.01841   0.05151  -0.01239
 101        4PY         0.00068   0.01320  -0.00355  -0.04373  -0.03474
 102        4PZ        -0.02710   0.00382  -0.00205  -0.03194   0.00766
                          31        32        33        34        35
                           V         V         V         V         V
     Eigenvalues --     0.52726   0.55704   0.57706   0.57851   0.59186
   1 1   C  1S          0.08152  -0.00103   0.04509   0.00001  -0.00007
   2        2S          0.14435  -0.00181   0.08270   0.00003  -0.00023
   3        2PX        -0.00390  -0.22128   0.00188  -0.00002   0.09900
   4        2PY         0.10346  -0.00064  -0.14013  -0.00005  -0.00614
   5        2PZ         0.00000   0.00001   0.00006  -0.18738   0.00002
   6        3S         -0.59774   0.00666  -0.46422  -0.00015   0.00763
   7        3PX        -0.01186  -0.62436   0.00660  -0.00004   0.18381
   8        3PY         0.10701   0.00239  -0.44851  -0.00015  -0.01733
   9        3PZ         0.00000   0.00003   0.00017  -0.53272   0.00013
  10        4S         -0.56067   0.02717   0.96141   0.00034  -0.11439
  11        4PX         0.01600   1.36528  -0.02136   0.00021  -1.39567
  12        4PY        -0.41259  -0.01119   0.46155   0.00016   0.06847
  13        4PZ         0.00002  -0.00005  -0.00041   1.25260  -0.00008
  14        5D 0       -0.05964   0.00097   0.02663   0.00001   0.00206
  15        5D+1        0.00000   0.00000   0.00000  -0.00005   0.00000
  16        5D-1        0.00000   0.00000  -0.00001   0.03590  -0.00001
  17        5D+2        0.04937  -0.00056  -0.00842   0.00000   0.00096
  18        5D-2       -0.00069  -0.06885   0.00067  -0.00001   0.02640
  19 2   C  1S         -0.05243  -0.05446   0.03173   0.00001   0.01232
  20        2S         -0.09321  -0.09751   0.05795   0.00001   0.02318
  21        2PX        -0.11484  -0.02738  -0.06607   0.00000  -0.03393
  22        2PY         0.04868  -0.00826   0.10869   0.00009  -0.19078
  23        2PZ         0.00000  -0.00001  -0.00008   0.17438   0.00007
  24        3S          0.35632   0.45146  -0.28730  -0.00006  -0.17413
  25        3PX        -0.20461   0.02719  -0.20131   0.00002  -0.18927
  26        3PY         0.07311  -0.14304   0.31774   0.00027  -0.61204
  27        3PZ         0.00001  -0.00002  -0.00026   0.53551   0.00025
  28        4S          0.76079  -0.52289   0.01470  -0.00013   1.03090
  29        4PX         0.37334   0.13205   0.11857  -0.00012   0.43873
  30        4PY        -0.06239  -0.32002  -0.42812  -0.00053   1.83697
  31        4PZ        -0.00002   0.00004   0.00052  -1.10042  -0.00057
  32        5D 0        0.02630   0.01865   0.03154   0.00001  -0.04412
  33        5D+1        0.00000   0.00000   0.00000   0.02200  -0.00001
  34        5D-1        0.00000   0.00000  -0.00001   0.03852   0.00001
  35        5D+2       -0.03438  -0.00772   0.00168  -0.00002   0.05683
  36        5D-2        0.05485   0.03416   0.01892   0.00001   0.02242
  37 3   C  1S         -0.05122   0.05667   0.03065   0.00002  -0.01344
  38        2S         -0.09108   0.10144   0.05600   0.00003  -0.02514
  39        2PX         0.11266  -0.02644   0.06545   0.00003  -0.05050
  40        2PY         0.04838   0.00899   0.11040   0.00001   0.19321
  41        2PZ         0.00000   0.00000  -0.00005   0.17686   0.00007
  42        3S          0.34785  -0.46555  -0.27729  -0.00016   0.17676
  43        3PX         0.19967   0.03206   0.19478   0.00011  -0.23533
  44        3PY         0.07515   0.14747   0.32001   0.00002   0.62118
  45        3PZ         0.00001  -0.00001  -0.00015   0.54343   0.00024
  46        4S          0.76470   0.47012  -0.01416   0.00014  -0.90626
  47        4PX        -0.36574   0.12491  -0.10088  -0.00013   0.55737
  48        4PY        -0.06005   0.31207  -0.44990   0.00010  -1.82143
  49        4PZ        -0.00003   0.00002   0.00032  -1.11927  -0.00051
  50        5D 0        0.02601  -0.01898   0.03211   0.00001   0.04279
  51        5D+1        0.00000   0.00000   0.00001  -0.02165   0.00000
  52        5D-1        0.00000   0.00000  -0.00001   0.03906   0.00001
  53        5D+2       -0.03444   0.00805   0.00054   0.00001  -0.05560
  54        5D-2       -0.05384   0.03559  -0.01898  -0.00001   0.02514
  55 4   H  1S          0.05130  -0.00025   0.07599   0.05386   0.00047
  56        2S          0.81255  -0.01048   0.51095   0.27930   0.01709
  57        3S         -0.32329   0.00893  -0.53880  -0.88855  -0.02739
  58        4PX        -0.00026  -0.01661   0.00046   0.00067   0.05743
  59        4PY        -0.00212   0.00052   0.03195   0.05076  -0.00168
  60        4PZ         0.00540   0.00027   0.05077   0.01312   0.00056
  61 5   H  1S          0.05130  -0.00025   0.07602  -0.05381   0.00047
  62        2S          0.81256  -0.01045   0.51114  -0.27896   0.01715
  63        3S         -0.32328   0.00885  -0.53937   0.88819  -0.02769
  64        4PX        -0.00027  -0.01661   0.00046  -0.00069   0.05743
  65        4PY        -0.00213   0.00052   0.03199  -0.05074  -0.00169
  66        4PZ        -0.00541  -0.00027  -0.05078   0.01309  -0.00057
  67 6   H  1S         -0.02574   0.04339   0.02584   0.00002  -0.05945
  68        2S         -0.54025   0.33865   0.30437   0.00013  -0.00954
  69        3S          0.11068   0.01611   0.03783  -0.00018   1.29363
  70        4PX        -0.00598  -0.05029  -0.00105  -0.00001   0.08219
  71        4PY         0.00110  -0.00527   0.02790   0.00001   0.00269
  72        4PZ         0.00000   0.00000  -0.00001   0.02530   0.00001
  73 7   H  1S         -0.03930   0.06002   0.05748   0.04893   0.03284
  74        2S         -0.57489   0.67937   0.46518   0.27013   0.09158
  75        3S          0.14236  -0.43863  -0.36908  -0.85430  -0.71223
  76        4PX         0.01748  -0.00081  -0.00590  -0.01655  -0.01716
  77        4PY         0.00168  -0.00851  -0.01196  -0.03840  -0.01275
  78        4PZ         0.00352  -0.02619  -0.03789  -0.01200  -0.01995
  79 8   H  1S         -0.03931   0.06002   0.05751  -0.04890   0.03282
  80        2S         -0.57488   0.67941   0.46533  -0.26977   0.09147
  81        3S          0.14237  -0.43868  -0.36955   0.85418  -0.71151
  82        4PX         0.01749  -0.00081  -0.00591   0.01655  -0.01718
  83        4PY         0.00168  -0.00851  -0.01199   0.03839  -0.01274
  84        4PZ        -0.00353   0.02619   0.03790  -0.01197   0.01994
  85 9   H  1S         -0.02668  -0.04097   0.02727   0.00000   0.05341
  86        2S         -0.54785  -0.30408   0.30471   0.00007  -0.05390
  87        3S          0.10320  -0.02987   0.02334   0.00023  -1.20416
  88        4PX         0.00468  -0.05012   0.00313  -0.00001   0.08032
  89        4PY         0.00145   0.00567   0.02746   0.00001  -0.00422
  90        4PZ         0.00000   0.00000  -0.00001   0.02518   0.00000
  91 10  H  1S         -0.04090  -0.05772   0.05805  -0.04809  -0.03429
  92        2S         -0.59067  -0.64828   0.47396  -0.26781  -0.11191
  93        3S          0.15332   0.42710  -0.37272   0.83944   0.70838
  94        4PX        -0.01775  -0.00081   0.00550  -0.01615  -0.01507
  95        4PY         0.00194   0.00836  -0.01168   0.03780   0.01188
  96        4PZ        -0.00418  -0.02542   0.03815  -0.01177  -0.02100
  97 11  H  1S         -0.04090  -0.05773   0.05801   0.04814  -0.03428
  98        2S         -0.59068  -0.64834   0.47375   0.26813  -0.11185
  99        3S          0.15331   0.42723  -0.37196  -0.83990   0.70785
 100        4PX        -0.01775  -0.00080   0.00548   0.01615  -0.01508
 101        4PY         0.00194   0.00837  -0.01166  -0.03781   0.01187
 102        4PZ         0.00418   0.02542  -0.03814  -0.01179   0.02099
                          36        37        38        39        40
                           V         V         V         V         V
     Eigenvalues --     0.60018   0.60147   0.60436   0.61558   0.64250
   1 1   C  1S          0.00000  -0.00473  -0.00001   0.01573  -0.00037
   2        2S          0.00000  -0.00809  -0.00001   0.02844  -0.00064
   3        2PX         0.00003   0.00560   0.00000  -0.00100  -0.15778
   4        2PY        -0.00008   0.14597   0.00011  -0.17052  -0.00199
   5        2PZ        -0.21074  -0.00012  -0.00853  -0.00001  -0.00001
   6        3S          0.00003  -0.03997   0.00000  -0.12722   0.00103
   7        3PX         0.00006   0.01248   0.00000  -0.00246  -0.43821
   8        3PY        -0.00021   0.38562   0.00029  -0.65743  -0.00564
   9        3PZ        -0.80973  -0.00046  -0.03297  -0.00002  -0.00004
  10        4S         -0.00122   2.07334   0.00139  -1.12083  -0.00457
  11        4PX        -0.00049  -0.05622   0.00000   0.00075   1.92147
  12        4PY         0.00073  -1.34417  -0.00104   1.79541   0.01716
  13        4PZ         1.62416   0.00087   0.07130   0.00012   0.00025
  14        5D 0        0.00003  -0.05969  -0.00005   0.01064   0.00062
  15        5D+1        0.00313   0.00005  -0.05569   0.00001   0.00000
  16        5D-1        0.05511   0.00003   0.00212   0.00000   0.00001
  17        5D+2        0.00002  -0.02477  -0.00003  -0.07188  -0.00092
  18        5D-2        0.00001   0.00162   0.00000  -0.00003  -0.05472
  19 2   C  1S         -0.00001   0.01082   0.00001  -0.01137   0.02971
  20        2S         -0.00001   0.01917   0.00001  -0.02159   0.05636
  21        2PX         0.00011  -0.19276  -0.00016  -0.01223  -0.15081
  22        2PY        -0.00003  -0.06183  -0.00008  -0.14146   0.06250
  23        2PZ        -0.09312   0.00011  -0.20140   0.00003   0.00001
  24        3S          0.00000  -0.04055  -0.00003   0.12173  -0.36770
  25        3PX         0.00028  -0.55800  -0.00046  -0.10308  -0.54034
  26        3PY        -0.00008  -0.20946  -0.00026  -0.52134   0.14295
  27        3PZ        -0.40166   0.00035  -0.70531   0.00009   0.00004
  28        4S          0.00093  -1.07972  -0.00078   0.68200  -0.05147
  29        4PX        -0.00064   1.32364   0.00112  -0.39146   2.07955
  30        4PY         0.00060   0.05982   0.00028   1.24436  -0.37608
  31        4PZ         0.63231  -0.00077   1.48391  -0.00026  -0.00026
  32        5D 0       -0.00001  -0.00028   0.00001  -0.02056   0.02098
  33        5D+1        0.01953  -0.00001   0.02224   0.00000   0.00000
  34        5D-1       -0.02255   0.00003  -0.05222   0.00001   0.00000
  35        5D+2        0.00003  -0.01470   0.00000   0.03427   0.02635
  36        5D-2       -0.00002   0.03274   0.00002  -0.00585   0.06270
  37 3   C  1S         -0.00001   0.00854   0.00000  -0.01039  -0.02990
  38        2S         -0.00002   0.01500   0.00000  -0.01982  -0.05680
  39        2PX        -0.00012   0.18847   0.00014   0.01362  -0.15439
  40        2PY         0.00008  -0.04626  -0.00006  -0.14210  -0.06489
  41        2PZ        -0.11016  -0.00021   0.19019  -0.00001  -0.00001
  42        3S          0.00006  -0.01638   0.00002   0.11379   0.37549
  43        3PX        -0.00037   0.53353   0.00039   0.11118  -0.54872
  44        3PY         0.00028  -0.16077  -0.00020  -0.52269  -0.14905
  45        3PZ        -0.46185  -0.00077   0.66028  -0.00004  -0.00002
  46        4S          0.00029  -1.16342  -0.00084   0.68806   0.03151
  47        4PX         0.00083  -1.25627  -0.00091   0.36082   2.10395
  48        4PY        -0.00054  -0.09011   0.00012   1.25531   0.39227
  49        4PZ         0.75642   0.00153  -1.41551   0.00007  -0.00006
  50        5D 0        0.00001   0.00376   0.00000  -0.02111  -0.02170
  51        5D+1       -0.02200  -0.00004   0.02141   0.00000   0.00000
  52        5D-1       -0.02740  -0.00005   0.04947   0.00000   0.00000
  53        5D+2       -0.00001  -0.01966  -0.00001   0.03542  -0.02498
  54        5D-2        0.00002  -0.03093  -0.00002   0.00538   0.06393
  55 4   H  1S          0.03940  -0.01960   0.00156   0.02453   0.00008
  56        2S          0.13687  -0.41321   0.00181   0.21985  -0.00434
  57        3S         -1.29867   0.67399  -0.05174  -0.91687  -0.00617
  58        4PX        -0.00150   0.00224   0.04114  -0.00004  -0.01791
  59        4PY         0.01743   0.03040   0.00067   0.00747   0.00032
  60        4PZ         0.03266  -0.02847   0.00147   0.02540   0.00033
  61 5   H  1S         -0.03938  -0.01965  -0.00160   0.02453   0.00008
  62        2S         -0.13640  -0.41343  -0.00245   0.21987  -0.00425
  63        3S          1.29793   0.67551   0.05279  -0.91676  -0.00600
  64        4PX         0.00154   0.00230  -0.04114  -0.00003  -0.01791
  65        4PY        -0.01747   0.03038  -0.00063   0.00747   0.00031
  66        4PZ         0.03263   0.02851   0.00152  -0.02540  -0.00032
  67 6   H  1S         -0.00005   0.06740   0.00005   0.00744  -0.01272
  68        2S         -0.00038   0.70137   0.00049  -0.00428   0.16544
  69        3S          0.00099  -1.09725  -0.00084  -0.51734   0.98829
  70        4PX         0.00004  -0.02304  -0.00002  -0.00314   0.02853
  71        4PY        -0.00001   0.02262   0.00001   0.01519  -0.05755
  72        4PZ        -0.00987  -0.00001   0.01695   0.00000   0.00000
  73 7   H  1S         -0.00857   0.01053   0.05597  -0.01029  -0.01873
  74        2S         -0.05693   0.12471   0.24873  -0.12448  -0.30654
  75        3S          0.61656   0.10854  -1.29039   0.65315   0.60492
  76        4PX        -0.03048   0.02111  -0.00740  -0.02847  -0.02933
  77        4PY        -0.00206   0.00347  -0.03643  -0.00393  -0.00575
  78        4PZ         0.01840  -0.00651  -0.02340   0.02549   0.03324
  79 8   H  1S          0.00858   0.01063  -0.05596  -0.01028  -0.01873
  80        2S          0.05686   0.12511  -0.24863  -0.12446  -0.30650
  81        3S         -0.61713   0.10594   1.29070   0.65305   0.60488
  82        4PX         0.03045   0.02112   0.00743  -0.02847  -0.02932
  83        4PY         0.00205   0.00342   0.03643  -0.00393  -0.00575
  84        4PZ         0.01841   0.00657  -0.02340  -0.02549  -0.03323
  85 9   H  1S         -0.00003   0.07255   0.00005   0.00673   0.01231
  86        2S         -0.00047   0.70409   0.00050  -0.00605  -0.16070
  87        3S          0.00040  -1.21344  -0.00095  -0.49504  -0.98010
  88        4PX         0.00001   0.03041   0.00002   0.00186   0.02741
  89        4PY        -0.00002   0.02294   0.00002   0.01489   0.05680
  90        4PZ        -0.00846   0.00000  -0.01843   0.00000  -0.00001
  91 10  H  1S          0.00353   0.00891   0.05709  -0.01077   0.01831
  92        2S          0.03321   0.13056   0.25889  -0.13676   0.31297
  93        3S         -0.50019   0.15341  -1.34914   0.66043  -0.59524
  94        4PX        -0.03125  -0.02257   0.00441   0.02901  -0.02892
  95        4PY         0.00536   0.00442  -0.03645  -0.00422   0.00665
  96        4PZ         0.01639   0.00519   0.02518  -0.02563   0.03208
  97 11  H  1S         -0.00357   0.00899  -0.05708  -0.01076   0.01831
  98        2S         -0.03344   0.13097  -0.25872  -0.13675   0.31293
  99        3S          0.50046   0.15200   1.34942   0.66021  -0.59543
 100        4PX         0.03127  -0.02251  -0.00444   0.02903  -0.02892
 101        4PY        -0.00535   0.00436   0.03646  -0.00422   0.00664
 102        4PZ         0.01641  -0.00521   0.02517   0.02562  -0.03209
                          41        42        43        44        45
                           V         V         V         V         V
     Eigenvalues --     0.74030   0.89146   0.93304   0.95946   0.98554
   1 1   C  1S          0.02864   0.06902  -0.00207   0.00000   0.03807
   2        2S          0.06122   0.15437  -0.00465   0.00000   0.08767
   3        2PX        -0.00104   0.00006  -0.01898  -0.00001   0.00039
   4        2PY        -0.00761   0.01270  -0.00083  -0.00001  -0.02390
   5        2PZ         0.00000   0.00000   0.00000   0.00016   0.00000
   6        3S         -0.47877  -2.00172   0.05938  -0.00004  -1.22746
   7        3PX        -0.00428   0.00490   0.14564   0.00002   0.00135
   8        3PY         0.10238   0.21163  -0.00807   0.00000   0.15391
   9        3PZ        -0.00001   0.00000  -0.00001   0.00180   0.00001
  10        4S         -0.84917   9.67851  -0.29224   0.00012   6.38519
  11        4PX         0.01495   0.07236   2.42512   0.00071   0.01217
[...]
  95        4PY         0.00000   0.00000   0.00000   0.00000   0.00003
  96        4PZ         0.00000   0.00000   0.00000   0.00000   0.00000
  97 11  H  1S         -0.00002   0.00000   0.00000   0.00000  -0.00001
  98        2S         -0.00016   0.00000   0.00000   0.00000  -0.00050
  99        3S         -0.00052  -0.00001   0.00000   0.00000  -0.00205
 100        4PX        -0.00001   0.00000   0.00000   0.00000   0.00003
 101        4PY         0.00000   0.00000   0.00000   0.00000   0.00003
 102        4PZ         0.00000   0.00000   0.00000   0.00000   0.00000
                          86        87        88        89        90
  86        2S          0.14842
  87        3S          0.05871   0.04204
  88        4PX         0.00000   0.00000   0.00073
  89        4PY         0.00000   0.00000   0.00000   0.00050
  90        4PZ         0.00000   0.00000   0.00000   0.00000   0.00033
  91 10  H  1S         -0.00052  -0.00209   0.00000   0.00003   0.00003
  92        2S         -0.00338  -0.00737  -0.00004   0.00027   0.00032
  93        3S         -0.00739  -0.00818  -0.00011   0.00008   0.00020
  94        4PX         0.00029   0.00018   0.00000   0.00001   0.00000
  95        4PY         0.00029   0.00010   0.00002   0.00001   0.00001
  96        4PZ        -0.00004  -0.00011   0.00000   0.00002   0.00000
  97 11  H  1S         -0.00052  -0.00209   0.00000   0.00003   0.00003
  98        2S         -0.00338  -0.00738  -0.00004   0.00027   0.00032
  99        3S         -0.00739  -0.00818  -0.00011   0.00008   0.00020
 100        4PX         0.00029   0.00018   0.00000   0.00001   0.00000
 101        4PY         0.00029   0.00010   0.00002   0.00001   0.00001
 102        4PZ        -0.00004  -0.00011   0.00000   0.00002   0.00000
                          91        92        93        94        95
  91 10  H  1S          0.08177
  92        2S          0.07767   0.14882
  93        3S          0.02060   0.06066   0.04540
  94        4PX         0.00000   0.00000   0.00000   0.00029
  95        4PY         0.00000   0.00000   0.00000   0.00000   0.00054
  96        4PZ         0.00000   0.00000   0.00000   0.00000   0.00000
  97 11  H  1S         -0.00001  -0.00054  -0.00222   0.00000   0.00000
  98        2S         -0.00054  -0.00376  -0.00820   0.00000   0.00000
  99        3S         -0.00222  -0.00820  -0.00947   0.00000   0.00000
 100        4PX         0.00000   0.00000   0.00000   0.00000   0.00000
 101        4PY         0.00000   0.00000   0.00000   0.00000   0.00000
 102        4PZ         0.00006   0.00054   0.00016   0.00000   0.00000
                          96        97        98        99       100
  96        4PZ         0.00071
  97 11  H  1S          0.00006   0.08177
  98        2S          0.00054   0.07767   0.14882
  99        3S          0.00016   0.02060   0.06066   0.04540
 100        4PX         0.00000   0.00000   0.00000   0.00000   0.00029
 101        4PY         0.00000   0.00000   0.00000   0.00000   0.00000
 102        4PZ         0.00007   0.00000   0.00000   0.00000   0.00000
                         101       102
 101        4PY         0.00054
 102        4PZ         0.00000   0.00071
     Gross orbital populations:
                           1
   1 1   C  1S          1.10319
   2        2S          0.88587
   3        2PX         0.20846
   4        2PY         0.21431
   5        2PZ         0.22153
   6        3S          0.74891
   7        3PX         0.50089
   8        3PY         0.50358
   9        3PZ         0.51176
  10        4S          0.46085
  11        4PX         0.20983
  12        4PY         0.27802
  13        4PZ         0.33047
  14        5D 0        0.00890
  15        5D+1        0.00609
  16        5D-1        0.01818
  17        5D+2        0.01243
  18        5D-2        0.01442
  19 2   C  1S          1.10317
  20        2S          0.88576
  21        2PX         0.21498
  22        2PY         0.21692
  23        2PZ         0.21997
  24        3S          0.74912
  25        3PX         0.50375
  26        3PY         0.50489
  27        3PZ         0.50747
  28        4S          0.45425
  29        4PX         0.26448
  30        4PY         0.30152
  31        4PZ         0.32462
  32        5D 0        0.00837
  33        5D+1        0.00292
  34        5D-1        0.01493
  35        5D+2        0.00738
  36        5D-2        0.01228
  37 3   C  1S          1.10316
  38        2S          0.88576
  39        2PX         0.21525
  40        2PY         0.21693
  41        2PZ         0.21988
  42        3S          0.74914
  43        3PX         0.50411
  44        3PY         0.50505
  45        3PZ         0.50748
  46        4S          0.45314
  47        4PX         0.26397
  48        4PY         0.30164
  49        4PZ         0.32481
  50        5D 0        0.00830
  51        5D+1        0.00296
  52        5D-1        0.01499
  53        5D+2        0.00753
  54        5D-2        0.01226
  55 4   H  1S          0.27917
  56        2S          0.47219
  57        3S          0.12059
  58        4PX         0.00442
  59        4PY         0.00760
  60        4PZ         0.00972
  61 5   H  1S          0.27917
  62        2S          0.47219
  63        3S          0.12059
  64        4PX         0.00442
  65        4PY         0.00760
  66        4PZ         0.00972
  67 6   H  1S          0.27714
  68        2S          0.46965
  69        3S          0.12495
  70        4PX         0.01013
  71        4PY         0.00718
  72        4PZ         0.00518
  73 7   H  1S          0.27713
  74        2S          0.47007
  75        3S          0.12889
  76        4PX         0.00471
  77        4PY         0.00776
  78        4PZ         0.00985
  79 8   H  1S          0.27713
  80        2S          0.47007
  81        3S          0.12889
  82        4PX         0.00471
  83        4PY         0.00776
  84        4PZ         0.00985
  85 9   H  1S          0.27736
  86        2S          0.46963
  87        3S          0.12468
  88        4PX         0.01011
  89        4PY         0.00724
  90        4PZ         0.00517
  91 10  H  1S          0.27725
  92        2S          0.47000
  93        3S          0.12869
  94        4PX         0.00472
  95        4PY         0.00774
  96        4PZ         0.00987
  97 11  H  1S          0.27725
  98        2S          0.47000
  99        3S          0.12869
 100        4PX         0.00472
 101        4PY         0.00774
 102        4PZ         0.00986
          Condensed to atoms (all electrons):
               1          2          3          4          5          6
     1  C    4.901758   0.366847   0.367104   0.407215   0.407216  -0.030711
     2  C    0.366847   4.868477  -0.065854  -0.039390  -0.039391   0.007817
     3  C    0.367104  -0.065854   4.867019  -0.039019  -0.039018   0.401252
     4  H    0.407215  -0.039390  -0.039019   0.612660  -0.039970  -0.005230
     5  H    0.407216  -0.039391  -0.039018  -0.039970   0.612660  -0.005229
     6  H   -0.030711   0.007817   0.401252  -0.005230  -0.005229   0.587228
     7  H   -0.037612  -0.005111   0.403556   0.009245  -0.007926  -0.030101
     8  H   -0.037614  -0.005110   0.403556  -0.007925   0.009245  -0.030101
     9  H   -0.030840   0.401397   0.007805  -0.005238  -0.005241  -0.000491
    10  H   -0.037832   0.403540  -0.005012  -0.007934   0.009278  -0.000098
    11  H   -0.037834   0.403540  -0.005014   0.009278  -0.007931  -0.000098
               7          8          9         10         11
     1  C   -0.037612  -0.037614  -0.030840  -0.037832  -0.037834
     2  C   -0.005111  -0.005110   0.401397   0.403540   0.403540
     3  C    0.403556   0.403556   0.007805  -0.005012  -0.005014
     4  H    0.009245  -0.007925  -0.005238  -0.007934   0.009278
     5  H   -0.007926   0.009245  -0.005241   0.009278  -0.007931
     6  H   -0.030101  -0.030101  -0.000491  -0.000098  -0.000098
     7  H    0.596055  -0.033990  -0.000087  -0.000902   0.005289
     8  H   -0.033990   0.596055  -0.000087   0.005288  -0.000902
     9  H   -0.000087  -0.000087   0.586691  -0.029866  -0.029867
    10  H   -0.000902   0.005288  -0.029866   0.595384  -0.033576
    11  H    0.005289  -0.000902  -0.029867  -0.033576   0.595386
 Mulliken charges:
               1
     1  C   -0.237696
     2  C   -0.296761
     3  C   -0.296375
     4  H    0.106307
     5  H    0.106307
     6  H    0.105763
     7  H    0.101586
     8  H    0.101586
     9  H    0.105824
    10  H    0.101730
    11  H    0.101728
 Sum of Mulliken charges =   0.00000
 Mulliken charges with hydrogens summed into heavy atoms:
               1
     1  C   -0.025082
     2  C    0.012522
     3  C    0.012560
 Atomic Valencies and Mayer Atomic Bond Orders:
               1          2          3          4          5          6
     1  C    3.912265   1.003840   1.004850   0.969382   0.969382  -0.005182
     2  C    1.003840   3.895840  -0.020330  -0.009791  -0.009792   0.006148
     3  C    1.004850  -0.020330   3.896422  -0.009700  -0.009699   0.976896
     4  H    0.969382  -0.009791  -0.009700   0.951248  -0.013052  -0.001361
     5  H    0.969382  -0.009792  -0.009699  -0.013052   0.951248  -0.001361
     6  H   -0.005182   0.006148   0.976896  -0.001361  -0.001361   0.960981
     7  H   -0.006212  -0.000593   0.974809   0.010476  -0.001820  -0.008544
     8  H   -0.006213  -0.000592   0.974810  -0.001820   0.010476  -0.008544
     9  H   -0.005079   0.977031   0.005985  -0.001404  -0.001405   0.002562
    10  H   -0.006251   0.974959  -0.000600  -0.001850   0.010368   0.000184
    11  H   -0.006252   0.974959  -0.000599   0.010368  -0.001849   0.000184
               7          8          9         10         11
     1  C   -0.006212  -0.006213  -0.005079  -0.006251  -0.006252
     2  C   -0.000593  -0.000592   0.977031   0.974959   0.974959
     3  C    0.974809   0.974810   0.005985  -0.000600  -0.000599
     4  H    0.010476  -0.001820  -0.001404  -0.001850   0.010368
     5  H   -0.001820   0.010476  -0.001405   0.010368  -0.001849
     6  H   -0.008544  -0.008544   0.002562   0.000184   0.000184
     7  H    0.961802  -0.009667   0.000179  -0.000203   0.003376
     8  H   -0.009667   0.961802   0.000179   0.003375  -0.000203
     9  H    0.000179   0.000179   0.961127  -0.008460  -0.008460
    10  H   -0.000203   0.003375  -0.008460   0.961995  -0.009528
    11  H    0.003376  -0.000203  -0.008460  -0.009528   0.961996
 Lowdin Atomic Charges:
               1
     1  C   -0.012966
     2  C   -0.011115
     3  C   -0.011821
     4  H    0.003444
     5  H    0.003444
     6  H    0.006111
     7  H    0.004355
     8  H    0.004355
     9  H    0.005928
    10  H    0.004133
    11  H    0.004133
 Sum of Lowdin charges  =   0.00000
 Lowdin atomic charges with hydrogens summed into heavy atoms:
               1
     1  C   -0.006079
     2  C    0.003079
     3  C    0.003000
     4  H    0.000000
     5  H    0.000000
     6  H    0.000000
     7  H    0.000000
     8  H    0.000000
     9  H    0.000000
    10  H    0.000000
    11  H    0.000000
 Sum of Lowdin charges  =   0.00000
 Dipole moment from Lowdin charges (Debye):
    X=    -0.0005    Y=    -0.0193    Z=     0.0000  Tot=     0.0193
 Electronic spatial extent (au):  <R**2>=            228.8280
 Charge=              0.0000 electrons
 Dipole moment (field-independent basis, Debye):
    X=             -0.0015    Y=              0.0763    Z=              0.0000  Tot=              0.0763
 Quadrupole moment (field-independent basis, Debye-Ang):
   XX=            -22.4227   YY=            -22.0910   ZZ=            -21.6722
   XY=              0.0240   XZ=              0.0000   YZ=              0.0000
 Traceless Quadrupole moment (field-independent basis, Debye-Ang):
   XX=             -0.3607   YY=             -0.0290   ZZ=              0.3897
   XY=              0.0240   XZ=              0.0000   YZ=              0.0000
 Octapole moment (field-independent basis, Debye-Ang**2):
  XXX=             -0.0543  YYY=              0.3305  ZZZ=              0.0001  XYY=              0.0022
  XXY=              1.4521  XXZ=             -0.0001  XZZ=              0.0138  YZZ=             -0.4529
  YYZ=             -0.0001  XYZ=             -0.0001
 Hexadecapole moment (field-independent basis, Debye-Ang**3):
 XXXX=           -208.0946 YYYY=            -73.3143 ZZZZ=            -45.3630 XXXY=              0.0941
 XXXZ=             -0.0005 YYYX=              0.0558 YYYZ=              0.0001 ZZZX=              0.0004
 ZZZY=             -0.0001 XXYY=            -46.4333 XXZZ=            -43.2524 YYZZ=            -17.6756
 XXYZ=             -0.0002 YYXZ=             -0.0002 ZZXY=              0.0118
 N-N= 8.222648905240D+01 E-N=-4.396586132008D+02  KE= 1.184932068998D+02
 Orbital energies and kinetic energies (alpha):
                                 1                 2
   1         O               -10.165800         15.959373
   2         O               -10.157062         15.957467
   3         O               -10.156978         15.957601
   4         O                -0.779977          1.319490
   5         O                -0.680897          1.339338
   6         O                -0.585098          1.272043
   7         O                -0.457289          0.880502
   8         O                -0.437097          0.973923
   9         O                -0.399612          1.069226
  10         O                -0.381995          1.018304
  11         O                -0.340412          1.253069
  12         O                -0.338491          1.184974
  13         O                -0.329444          1.061295
  14         V                 0.044041          0.590853
  15         V                 0.082217          0.631119
  16         V                 0.085889          0.588480
  17         V                 0.087734          0.577845
  18         V                 0.116785          0.697198
  19         V                 0.135596          0.645436
  20         V                 0.138904          0.689123
  21         V                 0.150155          0.685360
  22         V                 0.197748          1.027877
  23         V                 0.244709          1.294081
  24         V                 0.286263          0.942321
  25         V                 0.288965          0.757426
  26         V                 0.315000          1.011303
  27         V                 0.338146          0.995607
  28         V                 0.343707          0.953766
  29         V                 0.427021          0.814113
  30         V                 0.435647          1.026560
  31         V                 0.527256          2.452713
  32         V                 0.557037          2.103130
  33         V                 0.577057          2.016339
  34         V                 0.578511          1.995129
  35         V                 0.591862          1.878745
  36         V                 0.600179          1.657305
  37         V                 0.601470          2.014551
  38         V                 0.604359          1.806448
  39         V                 0.615581          1.733568
  40         V                 0.642496          1.900787
  41         V                 0.740302          1.919289
  42         V                 0.891457          1.848459
  43         V                 0.933037          1.945747
  44         V                 0.959463          1.768695
  45         V                 0.985537          1.813323
  46         V                 1.163380          1.912720
  47         V                 1.243118          1.948694
  48         V                 1.256123          1.963593
  49         V                 1.369221          2.192629
  50         V                 1.452572          2.256011
  51         V                 1.458363          2.113612
  52         V                 1.472640          2.181468
  53         V                 1.475004          2.396896
  54         V                 1.480607          2.422072
  55         V                 1.507279          2.462430
  56         V                 1.512390          2.315813
  57         V                 1.517526          2.382690
  58         V                 1.603069          2.436715
  59         V                 1.668896          2.930070
  60         V                 1.683296          2.933576
  61         V                 1.688707          2.324620
  62         V                 1.721689          2.377505
  63         V                 1.779204          2.813129
  64         V                 1.784643          2.544240
  65         V                 1.864030          3.009160
  66         V                 1.992749          3.268643
  67         V                 2.004720          3.213990
  68         V                 2.013800          3.305293
  69         V                 2.076032          3.095233
  70         V                 2.126718          3.257896
  71         V                 2.185058          3.769379
  72         V                 2.255349          3.461051
  73         V                 2.270222          3.933340
  74         V                 2.337459          4.117394
  75         V                 2.359648          3.629239
  76         V                 2.398816          3.627323
  77         V                 2.429976          4.223021
  78         V                 2.442122          3.516221
  79         V                 2.470302          4.728489
  80         V                 2.472752          3.616556
  81         V                 2.486573          4.916756
  82         V                 2.568208          4.585094
  83         V                 2.598411          3.726264
  84         V                 2.615329          3.714045
  85         V                 2.671870          4.187489
  86         V                 2.676032          4.573859
  87         V                 2.691316          4.370919
  88         V                 2.698798          4.623233
  89         V                 2.790774          5.250244
  90         V                 2.849927          4.746153
  91         V                 3.042648          5.721947
  92         V                 3.281946          6.268018
  93         V                 3.766180          6.287595
  94         V                 3.775940          6.304081
  95         V                 3.803219          6.450145
  96         V                 3.808925          6.363815
  97         V                 3.816612          6.297778
  98         V                 4.113640          7.081211
  99         V                 4.297601          7.421117
 100         V                23.839930         60.258374
 101         V                23.920741         60.372000
 102         V                23.928606         60.335212
 Total kinetic energy from orbitals= 1.184932068998D+02

 Test job not archived.
 1\1\GINC-KADET27\SP\RB3LYP\6-311G(d,p)\C3H8\MDOROHUN\15-Apr-2026\0\\# 
 B3LYP/6-311G(d,p) GFInput Pop=Full IOP(6/80=1)\\c3h8 zamkniętopowłok
 owa cząsteczka\\0,1\C,0,-0.005665,-0.000012,-0.005194\C,0,-0.052863,-
 0.000009,1.528496\C,0,1.421587,0.000016,-0.558768\H,0,-0.547729,-0.877
 812,-0.383369\H,0,-0.547763,0.877762,-0.383379\H,0,1.430338,-0.000014,
 -1.655842\H,0,1.978939,0.884098,-0.223181\H,0,1.979005,-0.884003,-0.22
 3127\H,0,-1.085826,0.000091,1.895861\H,0,0.44905,-0.885831,1.93758\H,0
 ,0.449219,0.885713,1.937591\\Version=ES64L-G09RevD.01\State=1-A\HF=-11
 9.1806343\RMSD=8.110e-09\Dipole=-0.0241471,0.,-0.0178167\Quadrupole=-0
 .0870057,0.2897601,-0.2027544,-0.0000178,0.1103583,0.0000046\PG=C01 [X
 (C3H8)]\\@


 I am not a vegetarian because I love animals;
 I am a vegetarian because I hate plants.
                               -- A. Whitney Brown
 Job cpu time:       0 days  0 hours  0 minutes  2.8 seconds.
 File lengths (MBytes):  RWF=      6 Int=      0 D2E=      0 Chk=      1 Scr=      1
 Normal termination of Gaussian 09 at Wed Apr 15 13:16:20 2026.
