 Entering Gaussian System, Link 0=/opt/g09/g09/g09
 Input=ch3ch_conh_ch3_rad.inp
 Output=ch3ch_conh_ch3_rad.log
 Initial command:
 /opt/g09/g09/l1.exe "/tmp/Gau-5754.inp" -scrdir="/tmp/"
 Entering Link 1 = /opt/g09/g09/l1.exe PID=      5756.
  
 Copyright (c) 1988,1990,1992,1993,1995,1998,2003,2009,2013,
            Gaussian, Inc.  All Rights Reserved.
  
 This is part of the Gaussian(R) 09 program.  It is based on
 the Gaussian(R) 03 system (copyright 2003, Gaussian, Inc.),
 the Gaussian(R) 98 system (copyright 1998, Gaussian, Inc.),
 the Gaussian(R) 94 system (copyright 1995, Gaussian, Inc.),
 the Gaussian 92(TM) system (copyright 1992, Gaussian, Inc.),
 the Gaussian 90(TM) system (copyright 1990, Gaussian, Inc.),
 the Gaussian 88(TM) system (copyright 1988, Gaussian, Inc.),
 the Gaussian 86(TM) system (copyright 1986, Carnegie Mellon
 University), and the Gaussian 82(TM) system (copyright 1983,
 Carnegie Mellon University). Gaussian is a federally registered
 trademark of Gaussian, Inc.
  
 This software contains proprietary and confidential information,
 including trade secrets, belonging to Gaussian, Inc.
  
 This software is provided under written license and may be
 used, copied, transmitted, or stored only in accord with that
 written license.
  
 The following legend is applicable only to US Government
 contracts under FAR:
  
                    RESTRICTED RIGHTS LEGEND
  
 Use, reproduction and disclosure by the US Government is
 subject to restrictions as set forth in subparagraphs (a)
 and (c) of the Commercial Computer Software - Restricted
 Rights clause in FAR 52.227-19.
  
 Gaussian, Inc.
 340 Quinnipiac St., Bldg. 40, Wallingford CT 06492
  
  
 ---------------------------------------------------------------
 Warning -- This program may not be used in any manner that
 competes with the business of Gaussian, Inc. or will provide
 assistance to any competitor of Gaussian, Inc.  The licensee
 of this program is prohibited from giving any competitor of
 Gaussian, Inc. access to this program.  By using this program,
 the user acknowledges that Gaussian, Inc. is engaged in the
 business of creating and licensing software in the field of
 computational chemistry and represents and warrants to the
 licensee that it is not a competitor of Gaussian, Inc. and that
 it will not use this program in any manner prohibited above.
 ---------------------------------------------------------------
  

 Cite this work as:
 Gaussian 09, Revision D.01,
 M. J. Frisch, G. W. Trucks, H. B. Schlegel, G. E. Scuseria, 
 M. A. Robb, J. R. Cheeseman, G. Scalmani, V. Barone, B. Mennucci, 
 G. A. Petersson, H. Nakatsuji, M. Caricato, X. Li, H. P. Hratchian, 
 A. F. Izmaylov, J. Bloino, G. Zheng, J. L. Sonnenberg, M. Hada, 
 M. Ehara, K. Toyota, R. Fukuda, J. Hasegawa, M. Ishida, T. Nakajima, 
 Y. Honda, O. Kitao, H. Nakai, T. Vreven, J. A. Montgomery, Jr., 
 J. E. Peralta, F. Ogliaro, M. Bearpark, J. J. Heyd, E. Brothers, 
 K. N. Kudin, V. N. Staroverov, T. Keith, R. Kobayashi, J. Normand, 
 K. Raghavachari, A. Rendell, J. C. Burant, S. S. Iyengar, J. Tomasi, 
 M. Cossi, N. Rega, J. M. Millam, M. Klene, J. E. Knox, J. B. Cross, 
 V. Bakken, C. Adamo, J. Jaramillo, R. Gomperts, R. E. Stratmann, 
 O. Yazyev, A. J. Austin, R. Cammi, C. Pomelli, J. W. Ochterski, 
 R. L. Martin, K. Morokuma, V. G. Zakrzewski, G. A. Voth, 
 P. Salvador, J. J. Dannenberg, S. Dapprich, A. D. Daniels, 
 O. Farkas, J. B. Foresman, J. V. Ortiz, J. Cioslowski, 
 and D. J. Fox, Gaussian, Inc., Wallingford CT, 2013.
 
 ******************************************
 Gaussian 09:  ES64L-G09RevD.01 24-Apr-2013
                15-Apr-2026 
 ******************************************
 -------------------------------------------------
 # UB3LYP/6-311G(d,p) GFInput Pop=Full IOP(6/80=1)
 -------------------------------------------------
 1/38=1/1;
 2/12=2,17=6,18=5,40=1/2;
 3/5=4,6=6,7=101,11=2,16=1,24=10,25=1,30=1,74=-5,116=2/1,2,3;
 4//1;
 5/5=2,38=5/2;
 6/7=3,28=1,80=1/1;
 99/5=1,9=1/99;
 ---------------------
 ch3ch_conh_ch3 rodnik
 ---------------------
 Symbolic Z-matrix:
 Charge =  0 Multiplicity = 2
 C                     4.54399  -2.90134   4.99593 
 N                     3.45246  -3.55669   4.3054 
 C                     2.81444  -2.99249   3.22096 
 C                     1.73507  -3.7958    2.64923 
 C                     0.95934  -3.31522   1.478 
 O                     3.13411  -1.88803   2.76747 
 H                     5.4602   -3.50453   4.96198 
 H                     4.72317  -1.95274   4.48781 
 H                     4.29443  -2.70278   6.04617 
 H                     3.14648  -4.46207   4.6304 
 H                     1.4952   -4.76265   3.08938 
 H                    -0.11313  -3.23516   1.71151 
 H                     1.32769  -2.3355    1.16494 
 H                     1.03677  -4.01313   0.63068 
 
                          Input orientation:                          
 ---------------------------------------------------------------------
 Center     Atomic      Atomic             Coordinates (Angstroms)
 Number     Number       Type             X           Y           Z
 ---------------------------------------------------------------------
      1          6           0        4.543989   -2.901340    4.995933
      2          7           0        3.452463   -3.556686    4.305398
      3          6           0        2.814440   -2.992490    3.220962
      4          6           0        1.735074   -3.795804    2.649225
      5          6           0        0.959336   -3.315221    1.478001
      6          8           0        3.134108   -1.888028    2.767469
      7          1           0        5.460195   -3.504531    4.961980
      8          1           0        4.723173   -1.952741    4.487809
      9          1           0        4.294434   -2.702784    6.046171
     10          1           0        3.146484   -4.462068    4.630397
     11          1           0        1.495201   -4.762653    3.089383
     12          1           0       -0.113130   -3.235164    1.711511
     13          1           0        1.327693   -2.335505    1.164935
     14          1           0        1.036767   -4.013134    0.630682
 ---------------------------------------------------------------------
                    Distance matrix (angstroms):
                    1          2          3          4          5
     1  C    0.000000
     2  N    1.448360   0.000000
     3  C    2.479954   1.378910   0.000000
     4  C    3.767905   2.397814   1.461926   0.000000
     5  C    5.039532   3.777322   2.565829   1.484754   0.000000
     6  O    2.824999   2.291505   1.235993   2.368731   2.903315
     7  H    1.097463   2.113009   3.208325   4.394338   5.694882
     8  H    1.090934   2.054414   2.515798   3.963081   5.008170
     9  H    1.097589   2.113848   3.202517   4.391385   5.689124
    10  H    2.126619   1.009437   2.063109   2.522108   4.004557
    11  H    4.049016   2.600754   2.211602   1.089071   2.231314
    12  H    5.708557   4.420982   3.302726   2.146971   1.100509
    13  H    5.034012   3.983521   2.620934   2.121685   1.092493
    14  H    5.708950   4.421252   3.303239   2.146947   1.100467
                    6          7          8          9         10
     6  O    0.000000
     7  H    3.583245   0.000000
     8  H    2.342837   1.782159   0.000000
     9  H    3.572124   1.782489   1.781818   0.000000
    10  H    3.177473   2.525883   2.966985   2.533236   0.000000
    11  H    3.324622   4.561871   4.502333   4.563043   2.278555
    12  H    3.670746   6.457558   5.722086   6.204783   4.544257
    13  H    2.455908   5.732516   4.766265   5.723889   4.454178
    14  H    3.671617   6.211726   5.719461   6.454218   4.544246
                   11         12         13         14
    11  H    0.000000
    12  H    2.611222   0.000000
    13  H    3.102033   1.784405   0.000000
    14  H    2.610967   1.759458   1.784518   0.000000
 Stoichiometry    C4H8NO(2)
 Framework group  C1[X(C4H8NO)]
 Deg. of freedom    36
 Full point group                 C1      NOp   1
 Largest Abelian subgroup         C1      NOp   1
 Largest concise Abelian subgroup C1      NOp   1
                         Standard orientation:                         
 ---------------------------------------------------------------------
 Center     Atomic      Atomic             Coordinates (Angstroms)
 Number     Number       Type             X           Y           Z
 ---------------------------------------------------------------------
      1          6           0        2.479836   -0.025745   -0.000098
      2          7           0        1.166701   -0.636828    0.000103
      3          6           0        0.003241    0.103275    0.000122
      4          6           0       -1.230712   -0.680682    0.000038
      5          6           0       -2.559691   -0.018632   -0.000123
      6          8           0        0.006505    1.339264    0.000040
      7          1           0        3.057894   -0.316914   -0.886380
      8          1           0        2.332017    1.055076   -0.010687
      9          1           0        3.051379   -0.299651    0.896013
     10          1           0        1.100149   -1.644069    0.000174
     11          1           0       -1.175014   -1.768327    0.000498
     12          1           0       -3.153376   -0.308520    0.880003
     13          1           0       -2.434224    1.066633   -0.000837
     14          1           0       -3.153824   -0.309852   -0.879454
 ---------------------------------------------------------------------
 Rotational constants (GHZ):      9.7781122      2.0566104      1.7361210
 Standard basis: 6-311G(d,p) (5D, 7F)
 AO basis set in the form of general basis input (Overlap normalization):
      1 0
 S   6 1.00       0.000000000000
      0.4563240000D+04  0.1966650249D-02
      0.6820240000D+03  0.1523060193D-01
      0.1549730000D+03  0.7612690966D-01
      0.4445530000D+02  0.2608010331D+00
      0.1302900000D+02  0.6164620782D+00
      0.1827730000D+01  0.2210060280D+00
 SP   3 1.00       0.000000000000
      0.2096420000D+02  0.1146600807D+00  0.4024869267D-01
      0.4803310000D+01  0.9199996477D+00  0.2375939567D+00
      0.1459330000D+01 -0.3030682134D-02  0.8158538515D+00
 SP   1 1.00       0.000000000000
      0.4834560000D+00  0.1000000000D+01  0.1000000000D+01
 SP   1 1.00       0.000000000000
      0.1455850000D+00  0.1000000000D+01  0.1000000000D+01
 D   1 1.00       0.000000000000
      0.6260000000D+00  0.1000000000D+01
 ****
      2 0
 S   6 1.00       0.000000000000
      0.6293480000D+04  0.1969788147D-02
      0.9490440000D+03  0.1496128592D-01
      0.2187760000D+03  0.7350053084D-01
      0.6369160000D+02  0.2489367658D+00
      0.1882820000D+02  0.6024594331D+00
      0.2720230000D+01  0.2562017589D+00
 SP   3 1.00       0.000000000000
      0.3063310000D+02  0.1119060795D+00  0.3831191864D-01
      0.7026140000D+01  0.9216666549D+00  0.2374031155D+00
      0.2112050000D+01 -0.2569191826D-02  0.8175923978D+00
 SP   1 1.00       0.000000000000
      0.6840090000D+00  0.1000000000D+01  0.1000000000D+01
 SP   1 1.00       0.000000000000
      0.2008780000D+00  0.1000000000D+01  0.1000000000D+01
 D   1 1.00       0.000000000000
      0.9130000000D+00  0.1000000000D+01
 ****
      3 0
 S   6 1.00       0.000000000000
      0.4563240000D+04  0.1966650249D-02
      0.6820240000D+03  0.1523060193D-01
      0.1549730000D+03  0.7612690966D-01
      0.4445530000D+02  0.2608010331D+00
      0.1302900000D+02  0.6164620782D+00
      0.1827730000D+01  0.2210060280D+00
 SP   3 1.00       0.000000000000
      0.2096420000D+02  0.1146600807D+00  0.4024869267D-01
      0.4803310000D+01  0.9199996477D+00  0.2375939567D+00
      0.1459330000D+01 -0.3030682134D-02  0.8158538515D+00
 SP   1 1.00       0.000000000000
      0.4834560000D+00  0.1000000000D+01  0.1000000000D+01
 SP   1 1.00       0.000000000000
      0.1455850000D+00  0.1000000000D+01  0.1000000000D+01
 D   1 1.00       0.000000000000
      0.6260000000D+00  0.1000000000D+01
 ****
      4 0
 S   6 1.00       0.000000000000
      0.4563240000D+04  0.1966650249D-02
      0.6820240000D+03  0.1523060193D-01
      0.1549730000D+03  0.7612690966D-01
      0.4445530000D+02  0.2608010331D+00
      0.1302900000D+02  0.6164620782D+00
      0.1827730000D+01  0.2210060280D+00
 SP   3 1.00       0.000000000000
      0.2096420000D+02  0.1146600807D+00  0.4024869267D-01
      0.4803310000D+01  0.9199996477D+00  0.2375939567D+00
      0.1459330000D+01 -0.3030682134D-02  0.8158538515D+00
 SP   1 1.00       0.000000000000
      0.4834560000D+00  0.1000000000D+01  0.1000000000D+01
 SP   1 1.00       0.000000000000
      0.1455850000D+00  0.1000000000D+01  0.1000000000D+01
 D   1 1.00       0.000000000000
      0.6260000000D+00  0.1000000000D+01
 ****
      5 0
 S   6 1.00       0.000000000000
      0.4563240000D+04  0.1966650249D-02
      0.6820240000D+03  0.1523060193D-01
      0.1549730000D+03  0.7612690966D-01
      0.4445530000D+02  0.2608010331D+00
      0.1302900000D+02  0.6164620782D+00
      0.1827730000D+01  0.2210060280D+00
 SP   3 1.00       0.000000000000
      0.2096420000D+02  0.1146600807D+00  0.4024869267D-01
      0.4803310000D+01  0.9199996477D+00  0.2375939567D+00
      0.1459330000D+01 -0.3030682134D-02  0.8158538515D+00
 SP   1 1.00       0.000000000000
      0.4834560000D+00  0.1000000000D+01  0.1000000000D+01
 SP   1 1.00       0.000000000000
      0.1455850000D+00  0.1000000000D+01  0.1000000000D+01
 D   1 1.00       0.000000000000
      0.6260000000D+00  0.1000000000D+01
 ****
      6 0
 S   6 1.00       0.000000000000
      0.8588500000D+04  0.1895150083D-02
      0.1297230000D+04  0.1438590063D-01
      0.2992960000D+03  0.7073200310D-01
      0.8737710000D+02  0.2400010105D+00
      0.2567890000D+02  0.5947970261D+00
      0.3740040000D+01  0.2808020123D+00
 SP   3 1.00       0.000000000000
      0.4211750000D+02  0.1138890124D+00  0.3651139738D-01
      0.9628370000D+01  0.9208111006D+00  0.2371529830D+00
      0.2853320000D+01 -0.3274470358D-02  0.8197019412D+00
 SP   1 1.00       0.000000000000
      0.9056610000D+00  0.1000000000D+01  0.1000000000D+01
 SP   1 1.00       0.000000000000
      0.2556110000D+00  0.1000000000D+01  0.1000000000D+01
 D   1 1.00       0.000000000000
      0.1292000000D+01  0.1000000000D+01
 ****
      7 0
 S   3 1.00       0.000000000000
      0.3386500000D+02  0.2549381454D-01
      0.5094790000D+01  0.1903731086D+00
      0.1158790000D+01  0.8521614860D+00
 S   1 1.00       0.000000000000
      0.3258400000D+00  0.1000000000D+01
 S   1 1.00       0.000000000000
      0.1027410000D+00  0.1000000000D+01
 P   1 1.00       0.000000000000
      0.7500000000D+00  0.1000000000D+01
 ****
      8 0
 S   3 1.00       0.000000000000
      0.3386500000D+02  0.2549381454D-01
      0.5094790000D+01  0.1903731086D+00
      0.1158790000D+01  0.8521614860D+00
 S   1 1.00       0.000000000000
      0.3258400000D+00  0.1000000000D+01
 S   1 1.00       0.000000000000
      0.1027410000D+00  0.1000000000D+01
 P   1 1.00       0.000000000000
      0.7500000000D+00  0.1000000000D+01
 ****
      9 0
 S   3 1.00       0.000000000000
      0.3386500000D+02  0.2549381454D-01
      0.5094790000D+01  0.1903731086D+00
      0.1158790000D+01  0.8521614860D+00
 S   1 1.00       0.000000000000
      0.3258400000D+00  0.1000000000D+01
 S   1 1.00       0.000000000000
      0.1027410000D+00  0.1000000000D+01
 P   1 1.00       0.000000000000
      0.7500000000D+00  0.1000000000D+01
 ****
     10 0
 S   3 1.00       0.000000000000
      0.3386500000D+02  0.2549381454D-01
      0.5094790000D+01  0.1903731086D+00
      0.1158790000D+01  0.8521614860D+00
 S   1 1.00       0.000000000000
      0.3258400000D+00  0.1000000000D+01
 S   1 1.00       0.000000000000
      0.1027410000D+00  0.1000000000D+01
 P   1 1.00       0.000000000000
      0.7500000000D+00  0.1000000000D+01
 ****
     11 0
 S   3 1.00       0.000000000000
      0.3386500000D+02  0.2549381454D-01
      0.5094790000D+01  0.1903731086D+00
      0.1158790000D+01  0.8521614860D+00
 S   1 1.00       0.000000000000
      0.3258400000D+00  0.1000000000D+01
 S   1 1.00       0.000000000000
      0.1027410000D+00  0.1000000000D+01
 P   1 1.00       0.000000000000
      0.7500000000D+00  0.1000000000D+01
 ****
     12 0
 S   3 1.00       0.000000000000
      0.3386500000D+02  0.2549381454D-01
      0.5094790000D+01  0.1903731086D+00
      0.1158790000D+01  0.8521614860D+00
 S   1 1.00       0.000000000000
      0.3258400000D+00  0.1000000000D+01
 S   1 1.00       0.000000000000
      0.1027410000D+00  0.1000000000D+01
 P   1 1.00       0.000000000000
      0.7500000000D+00  0.1000000000D+01
 ****
     13 0
 S   3 1.00       0.000000000000
      0.3386500000D+02  0.2549381454D-01
      0.5094790000D+01  0.1903731086D+00
      0.1158790000D+01  0.8521614860D+00
 S   1 1.00       0.000000000000
      0.3258400000D+00  0.1000000000D+01
 S   1 1.00       0.000000000000
      0.1027410000D+00  0.1000000000D+01
 P   1 1.00       0.000000000000
      0.7500000000D+00  0.1000000000D+01
 ****
     14 0
 S   3 1.00       0.000000000000
      0.3386500000D+02  0.2549381454D-01
      0.5094790000D+01  0.1903731086D+00
      0.1158790000D+01  0.8521614860D+00
 S   1 1.00       0.000000000000
      0.3258400000D+00  0.1000000000D+01
 S   1 1.00       0.000000000000
      0.1027410000D+00  0.1000000000D+01
 P   1 1.00       0.000000000000
      0.7500000000D+00  0.1000000000D+01
 ****

 There are   162 symmetry adapted cartesian basis functions of A   symmetry.
 There are   156 symmetry adapted basis functions of A   symmetry.
   156 basis functions,   256 primitive gaussians,   162 cartesian basis functions
    24 alpha electrons       23 beta electrons
       nuclear repulsion energy       232.4752991688 Hartrees.
 NAtoms=   14 NActive=   14 NUniq=   14 SFac= 1.00D+00 NAtFMM=   60 NAOKFM=F Big=F
 Integral buffers will be    131072 words long.
 Raffenetti 2 integral format.
 Two-electron integral symmetry is turned on.
 One-electron integrals computed using PRISM.
 NBasis=   156 RedAO= T EigKep=  1.67D-03  NBF=   156
 NBsUse=   156 1.00D-06 EigRej= -1.00D+00 NBFU=   156
 ExpMin= 1.03D-01 ExpMax= 8.59D+03 ExpMxC= 1.30D+03 IAcc=1 IRadAn=         1 AccDes= 0.00D+00
 Harris functional with IExCor=  402 and IRadAn=       1 diagonalized for initial guess.
 HarFok:  IExCor=  402 AccDes= 0.00D+00 IRadAn=         1 IDoV= 1 UseB2=F ITyADJ=14
 ICtDFT=  3500011 ScaDFX=  1.000000  1.000000  1.000000  1.000000
 FoFCou: FMM=F IPFlag=           0 FMFlag=      100000 FMFlg1=           0
         NFxFlg=           0 DoJE=T BraDBF=F KetDBF=T FulRan=T
         wScrn=  0.000000 ICntrl=     500 IOpCl=  0 I1Cent=   200000004 NGrid=           0
         NMat0=    1 NMatS0=      1 NMatT0=    0 NMatD0=    1 NMtDS0=    0 NMtDT0=    0
 Petite list used in FoFCou.
 Initial guess <Sx>= 0.0000 <Sy>= 0.0000 <Sz>= 0.5000 <S**2>= 0.7500 S= 0.5000
 Requested convergence on RMS density matrix=1.00D-08 within 128 cycles.
 Requested convergence on MAX density matrix=1.00D-06.
 Requested convergence on             energy=1.00D-06.
 No special actions if energy rises.
 Integral accuracy reduced to 1.0D-05 until final iterations.
 Initial convergence to 1.0D-05 achieved.  Increase integral accuracy.
 SCF Done:  E(UB3LYP) =  -287.266822699     A.U. after   17 cycles
            NFock= 17  Conv=0.78D-08     -V/T= 2.0041
 <Sx>= 0.0000 <Sy>= 0.0000 <Sz>= 0.5000 <S**2>= 0.7553 S= 0.5026
 <L.S>= 0.000000000000E+00
 Annihilation of the first spin contaminant:
 S**2 before annihilation     0.7553,   after     0.7500

 **********************************************************************

            Population analysis using the SCF density.

 **********************************************************************

 Orbital symmetries:
 Alpha Orbitals:
       Occupied  (A) (A) (A) (A) (A) (A) (A) (A) (A) (A) (A) (A)
                 (A) (A) (A) (A) (A) (A) (A) (A) (A) (A) (A) (A)
       Virtual   (A) (A) (A) (A) (A) (A) (A) (A) (A) (A) (A) (A)
                 (A) (A) (A) (A) (A) (A) (A) (A) (A) (A) (A) (A)
                 (A) (A) (A) (A) (A) (A) (A) (A) (A) (A) (A) (A)
                 (A) (A) (A) (A) (A) (A) (A) (A) (A) (A) (A) (A)
                 (A) (A) (A) (A) (A) (A) (A) (A) (A) (A) (A) (A)
                 (A) (A) (A) (A) (A) (A) (A) (A) (A) (A) (A) (A)
                 (A) (A) (A) (A) (A) (A) (A) (A) (A) (A) (A) (A)
                 (A) (A) (A) (A) (A) (A) (A) (A) (A) (A) (A) (A)
                 (A) (A) (A) (A) (A) (A) (A) (A) (A) (A) (A) (A)
                 (A) (A) (A) (A) (A) (A) (A) (A) (A) (A) (A) (A)
                 (A) (A) (A) (A) (A) (A) (A) (A) (A) (A) (A) (A)
 Beta  Orbitals:
       Occupied  (A) (A) (A) (A) (A) (A) (A) (A) (A) (A) (A) (A)
                 (A) (A) (A) (A) (A) (A) (A) (A) (A) (A) (A)
       Virtual   (A) (A) (A) (A) (A) (A) (A) (A) (A) (A) (A) (A)
                 (A) (A) (A) (A) (A) (A) (A) (A) (A) (A) (A) (A)
                 (A) (A) (A) (A) (A) (A) (A) (A) (A) (A) (A) (A)
                 (A) (A) (A) (A) (A) (A) (A) (A) (A) (A) (A) (A)
                 (A) (A) (A) (A) (A) (A) (A) (A) (A) (A) (A) (A)
                 (A) (A) (A) (A) (A) (A) (A) (A) (A) (A) (A) (A)
                 (A) (A) (A) (A) (A) (A) (A) (A) (A) (A) (A) (A)
                 (A) (A) (A) (A) (A) (A) (A) (A) (A) (A) (A) (A)
                 (A) (A) (A) (A) (A) (A) (A) (A) (A) (A) (A) (A)
                 (A) (A) (A) (A) (A) (A) (A) (A) (A) (A) (A) (A)
                 (A) (A) (A) (A) (A) (A) (A) (A) (A) (A) (A) (A)
                 (A)
 The electronic state is 2-A.
 Alpha  occ. eigenvalues --  -19.07360 -14.33398 -10.26278 -10.20092 -10.19906
 Alpha  occ. eigenvalues --  -10.16986  -1.02600  -0.91797  -0.78726  -0.71377
 Alpha  occ. eigenvalues --   -0.63819  -0.57690  -0.51198  -0.47764  -0.45440
 Alpha  occ. eigenvalues --   -0.42749  -0.42231  -0.40119  -0.38735  -0.38165
 Alpha  occ. eigenvalues --   -0.37095  -0.26051  -0.25654  -0.22052
 Alpha virt. eigenvalues --    0.03100   0.05986   0.06204   0.06564   0.10669
 Alpha virt. eigenvalues --    0.11154   0.11299   0.12629   0.14656   0.17528
 Alpha virt. eigenvalues --    0.22790   0.25408   0.27921   0.29097   0.29807
 Alpha virt. eigenvalues --    0.31549   0.32333   0.35945   0.38062   0.39272
 Alpha virt. eigenvalues --    0.41945   0.43018   0.48931   0.50581   0.52456
 Alpha virt. eigenvalues --    0.54564   0.56383   0.56899   0.58373   0.59073
 Alpha virt. eigenvalues --    0.59320   0.62119   0.63214   0.65036   0.66042
 Alpha virt. eigenvalues --    0.67034   0.74306   0.77253   0.81687   0.89865
 Alpha virt. eigenvalues --    0.90432   0.92476   0.97463   1.02677   1.02849
 Alpha virt. eigenvalues --    1.05818   1.06051   1.16519   1.26919   1.27347
 Alpha virt. eigenvalues --    1.30054   1.36684   1.42513   1.44131   1.44283
 Alpha virt. eigenvalues --    1.44354   1.44930   1.49759   1.50207   1.51081
 Alpha virt. eigenvalues --    1.52623   1.55535   1.61015   1.63182   1.64143
 Alpha virt. eigenvalues --    1.65808   1.69536   1.71427   1.73798   1.79087
 Alpha virt. eigenvalues --    1.81040   1.84668   1.90565   1.92676   1.97433
 Alpha virt. eigenvalues --    2.02196   2.03561   2.03600   2.10576   2.17204
 Alpha virt. eigenvalues --    2.21107   2.25494   2.28604   2.31860   2.32827
 Alpha virt. eigenvalues --    2.34205   2.35812   2.40005   2.43775   2.46372
 Alpha virt. eigenvalues --    2.46559   2.47752   2.50455   2.52185   2.53750
 Alpha virt. eigenvalues --    2.62472   2.64119   2.67180   2.69567   2.76118
 Alpha virt. eigenvalues --    2.83569   2.84018   2.84498   2.89455   2.94113
 Alpha virt. eigenvalues --    2.94996   3.08787   3.17626   3.27611   3.32113
 Alpha virt. eigenvalues --    3.33883   3.55635   3.58837   3.68714   3.73608
 Alpha virt. eigenvalues --    3.75377   3.83611   3.85294   3.85738   3.95086
 Alpha virt. eigenvalues --    4.25105   4.82338   4.91352   4.96725   5.10736
 Alpha virt. eigenvalues --    5.67086  23.73563  23.86467  23.88670  23.93420
 Alpha virt. eigenvalues --   35.56613  50.01216
  Beta  occ. eigenvalues --  -19.07044 -14.33233 -10.26398 -10.19917 -10.18848
  Beta  occ. eigenvalues --  -10.17051  -1.02104  -0.91412  -0.76894  -0.71257
  Beta  occ. eigenvalues --   -0.62663  -0.57394  -0.50446  -0.47416  -0.44823
  Beta  occ. eigenvalues --   -0.41993  -0.41258  -0.39537  -0.38591  -0.37232
  Beta  occ. eigenvalues --   -0.36829  -0.25177  -0.24487
  Beta virt. eigenvalues --   -0.09686   0.03252   0.06113   0.06689   0.08208
  Beta virt. eigenvalues --    0.10927   0.11246   0.11669   0.12751   0.14723
  Beta virt. eigenvalues --    0.17830   0.23292   0.25662   0.27977   0.29324
  Beta virt. eigenvalues --    0.29891   0.31923   0.32893   0.37065   0.38950
  Beta virt. eigenvalues --    0.39494   0.43367   0.45262   0.49334   0.51929
  Beta virt. eigenvalues --    0.52628   0.55032   0.56440   0.57011   0.58508
  Beta virt. eigenvalues --    0.59219   0.59844   0.62539   0.63611   0.65521
  Beta virt. eigenvalues --    0.66537   0.67485   0.74448   0.77673   0.82767
  Beta virt. eigenvalues --    0.90232   0.91423   0.92670   0.98813   1.03033
  Beta virt. eigenvalues --    1.03214   1.06222   1.07607   1.16769   1.27455
  Beta virt. eigenvalues --    1.27510   1.30137   1.38285   1.43035   1.44397
  Beta virt. eigenvalues --    1.44433   1.44887   1.45376   1.50246   1.50753
  Beta virt. eigenvalues --    1.51289   1.52831   1.56984   1.61263   1.63527
  Beta virt. eigenvalues --    1.65280   1.65924   1.69740   1.71555   1.73989
  Beta virt. eigenvalues --    1.79398   1.81835   1.86617   1.91032   1.94713
  Beta virt. eigenvalues --    1.97528   2.02563   2.03919   2.03974   2.11601
  Beta virt. eigenvalues --    2.17416   2.21693   2.26837   2.28787   2.32249
  Beta virt. eigenvalues --    2.32982   2.34386   2.36211   2.40366   2.44111
  Beta virt. eigenvalues --    2.46781   2.46863   2.47795   2.50685   2.53257
  Beta virt. eigenvalues --    2.53895   2.63031   2.64366   2.69362   2.69881
  Beta virt. eigenvalues --    2.76374   2.83763   2.84871   2.86787   2.89936
  Beta virt. eigenvalues --    2.95337   2.95845   3.09356   3.17967   3.28163
  Beta virt. eigenvalues --    3.32262   3.34671   3.55774   3.59036   3.68991
  Beta virt. eigenvalues --    3.73949   3.75824   3.83840   3.85398   3.86207
  Beta virt. eigenvalues --    3.96327   4.26200   4.82516   4.92719   4.96988
  Beta virt. eigenvalues --    5.11003   5.67316  23.74087  23.87016  23.88868
  Beta virt. eigenvalues --   23.93381  35.56782  50.01533
     Alpha Molecular Orbital Coefficients:
                           1         2         3         4         5
                           O         O         O         O         O
     Eigenvalues --   -19.07360 -14.33398 -10.26278 -10.20092 -10.19906
   1 1   C  1S          0.00000   0.00002  -0.00001  -0.00046   0.56301
   2        2S          0.00000  -0.00004  -0.00002  -0.00036   0.46325
   3        2PX         0.00000  -0.00028   0.00005  -0.00004  -0.00068
   4        2PY         0.00004  -0.00019  -0.00003   0.00000  -0.00054
   5        2PZ         0.00000   0.00000   0.00000   0.00000   0.00000
   6        3S          0.00016   0.00041   0.00017  -0.00024   0.01839
   7        3PX        -0.00009   0.00047  -0.00029   0.00023   0.00145
   8        3PY        -0.00022   0.00043   0.00005  -0.00001   0.00126
   9        3PZ         0.00000   0.00000   0.00000   0.00000  -0.00001
  10        4S          0.00095   0.00446   0.00074   0.00103  -0.00355
  11        4PX        -0.00008  -0.00128  -0.00046  -0.00067   0.00002
  12        4PY        -0.00019   0.00006   0.00108   0.00014  -0.00017
  13        4PZ         0.00000  -0.00001  -0.00001   0.00000  -0.00001
  14        5D 0        0.00007   0.00045  -0.00003   0.00003   0.00039
  15        5D+1        0.00000   0.00000   0.00000   0.00000   0.00000
  16        5D-1        0.00000   0.00000   0.00000   0.00000   0.00000
  17        5D+2        0.00002  -0.00020   0.00012   0.00000  -0.00041
  18        5D-2        0.00001  -0.00058  -0.00013  -0.00006  -0.00070
  19 2   N  1S          0.00000   0.55733  -0.00005   0.00000  -0.00003
  20        2S          0.00005   0.46569  -0.00005   0.00005  -0.00009
  21        2PX        -0.00008   0.00017  -0.00039  -0.00006   0.00023
  22        2PY         0.00009  -0.00009   0.00020   0.00005   0.00010
  23        2PZ         0.00000   0.00000   0.00000   0.00000   0.00000
  24        3S         -0.00049   0.01610   0.00062  -0.00031   0.00075
  25        3PX         0.00042  -0.00056   0.00095   0.00036  -0.00017
  26        3PY        -0.00042  -0.00023  -0.00045  -0.00025  -0.00005
  27        3PZ         0.00000   0.00000   0.00000   0.00000   0.00000
  28        4S          0.00424  -0.01173  -0.00142   0.00162  -0.00159
  29        4PX        -0.00297   0.00056   0.00046  -0.00053  -0.00125
  30        4PY        -0.00132  -0.00435  -0.00392   0.00033  -0.00259
  31        4PZ         0.00000   0.00000   0.00000   0.00000   0.00000
  32        5D 0       -0.00009  -0.00072   0.00050   0.00004   0.00019
  33        5D+1        0.00000   0.00000   0.00000   0.00000   0.00000
  34        5D-1        0.00000   0.00000   0.00000   0.00000   0.00000
  35        5D+2       -0.00001  -0.00040  -0.00053  -0.00013  -0.00032
  36        5D-2        0.00020  -0.00014   0.00062   0.00020  -0.00031
  37 3   C  1S         -0.00001   0.00000   0.56302  -0.00155   0.00001
  38        2S          0.00003   0.00006   0.46345  -0.00117   0.00000
  39        2PX         0.00004   0.00043   0.00050  -0.00063   0.00000
  40        2PY         0.00039  -0.00031  -0.00010  -0.00045   0.00000
  41        2PZ         0.00000   0.00000   0.00000   0.00000   0.00000
  42        3S          0.00087   0.00026   0.01696  -0.00034   0.00015
  43        3PX        -0.00028  -0.00123  -0.00057   0.00205  -0.00013
  44        3PY        -0.00098   0.00087   0.00088   0.00156  -0.00005
  45        3PZ         0.00000   0.00000   0.00000   0.00000   0.00000
  46        4S         -0.00074   0.00275  -0.00454   0.00575  -0.00222
  47        4PX        -0.00057   0.00588   0.00506  -0.00565   0.00425
  48        4PY         0.00992  -0.00170   0.00636   0.00149   0.00165
  49        4PZ         0.00000   0.00000   0.00000   0.00000   0.00000
  50        5D 0        0.00025   0.00021  -0.00175   0.00041   0.00000
  51        5D+1        0.00000   0.00000   0.00000   0.00000   0.00000
  52        5D-1        0.00000   0.00000   0.00000   0.00000   0.00000
  53        5D+2        0.00102  -0.00028  -0.00075  -0.00061   0.00009
  54        5D-2        0.00010   0.00105   0.00013  -0.00119   0.00004
  55 4   C  1S          0.00000  -0.00001   0.00149   0.56262   0.00046
  56        2S          0.00001   0.00006   0.00134   0.46344   0.00040
  57        2PX         0.00005   0.00007   0.00059   0.00003  -0.00005
  58        2PY         0.00009   0.00002   0.00038  -0.00004   0.00000
  59        2PZ         0.00000   0.00000   0.00000   0.00000   0.00000
  60        3S          0.00004  -0.00031  -0.00010   0.01892  -0.00027
  61        3PX        -0.00033  -0.00046  -0.00197   0.00011   0.00025
  62        3PY        -0.00054  -0.00020  -0.00150  -0.00092   0.00000
  63        3PZ         0.00000   0.00000   0.00000   0.00000   0.00000
  64        4S          0.00294   0.00151   0.00447  -0.01433   0.00478
  65        4PX         0.00392   0.00036   0.00498   0.00105   0.00030
  66        4PY        -0.00236   0.00207   0.00037  -0.00726   0.00263
  67        4PZ         0.00000   0.00000   0.00000   0.00000   0.00000
  68        5D 0       -0.00004  -0.00003   0.00041  -0.00126  -0.00004
  69        5D+1        0.00000   0.00000   0.00000   0.00000   0.00000
  70        5D-1        0.00000   0.00000   0.00000   0.00000   0.00000
  71        5D+2        0.00004  -0.00021  -0.00075  -0.00062   0.00005
  72        5D-2       -0.00039  -0.00028  -0.00112   0.00007   0.00000
  73 5   C  1S          0.00000   0.00000  -0.00004   0.00260  -0.00001
  74        2S          0.00001   0.00003   0.00002   0.00215   0.00000
  75        2PX         0.00001   0.00007   0.00010   0.00061   0.00003
  76        2PY         0.00001  -0.00001  -0.00002  -0.00031   0.00000
  77        2PZ         0.00000   0.00000   0.00000   0.00000   0.00000
  78        3S          0.00000  -0.00031  -0.00039   0.00028   0.00001
  79        3PX        -0.00003  -0.00043  -0.00063  -0.00186  -0.00016
  80        3PY        -0.00005   0.00003   0.00007   0.00095  -0.00001
  81        3PZ         0.00000   0.00000   0.00000   0.00000   0.00000
  82        4S          0.00240   0.00033   0.00327   0.00687  -0.00190
  83        4PX         0.00047   0.00033   0.00105   0.00321  -0.00073
  84        4PY        -0.00054  -0.00025  -0.00078   0.00070  -0.00016
  85        4PZ         0.00000   0.00000   0.00000   0.00000   0.00000
  86        5D 0        0.00009   0.00002   0.00006   0.00080  -0.00001
  87        5D+1        0.00000   0.00000   0.00000   0.00000   0.00000
  88        5D-1        0.00000   0.00000   0.00000   0.00000   0.00000
  89        5D+2       -0.00001  -0.00007  -0.00019  -0.00056  -0.00003
  90        5D-2        0.00005   0.00005   0.00017   0.00097   0.00000
  91 6   O  1S          0.55126   0.00001  -0.00008   0.00000   0.00000
  92        2S          0.46973   0.00005  -0.00010   0.00001   0.00000
  93        2PX         0.00004   0.00001  -0.00003  -0.00001   0.00001
  94        2PY        -0.00119  -0.00006  -0.00052  -0.00009  -0.00003
  95        2PZ         0.00000   0.00000   0.00000   0.00000   0.00000
  96        3S          0.01405  -0.00032   0.00090   0.00011   0.00003
  97        3PX        -0.00004  -0.00002   0.00013   0.00006  -0.00005
  98        3PY        -0.00077   0.00034   0.00153   0.00046   0.00010
  99        3PZ         0.00000   0.00000   0.00000   0.00000   0.00000
 100        4S         -0.01205   0.00022  -0.00708  -0.00260  -0.00059
 101        4PX         0.00014  -0.00099  -0.00083   0.00058  -0.00051
 102        4PY         0.00254  -0.00003   0.00281   0.00070  -0.00024
 103        4PZ         0.00000   0.00000   0.00000   0.00000   0.00000
 104        5D 0       -0.00011   0.00000   0.00055   0.00002  -0.00004
 105        5D+1        0.00000   0.00000   0.00000   0.00000   0.00000
 106        5D-1        0.00000   0.00000   0.00000   0.00000   0.00000
 107        5D+2       -0.00024   0.00012   0.00083   0.00021  -0.00003
 108        5D-2       -0.00001   0.00016   0.00003  -0.00010   0.00004
 109 7   H  1S         -0.00002  -0.00004   0.00000   0.00002   0.00012
 110        2S         -0.00003  -0.00090   0.00013  -0.00021  -0.00306
 111        3S         -0.00009  -0.00006   0.00016   0.00015   0.00137
 112        4PX        -0.00003   0.00021   0.00001   0.00007   0.00100
 113        4PY         0.00001  -0.00012  -0.00006  -0.00003  -0.00065
 114        4PZ        -0.00003  -0.00024   0.00006  -0.00003  -0.00179
 115 8   H  1S         -0.00003  -0.00002  -0.00003  -0.00002   0.00010
 116        2S          0.00012  -0.00106  -0.00038  -0.00010  -0.00332
 117        3S         -0.00028  -0.00053  -0.00092  -0.00012   0.00127
 118        4PX         0.00005  -0.00006   0.00003  -0.00006  -0.00036
 119        4PY        -0.00010   0.00024   0.00002   0.00000   0.00227
 120        4PZ         0.00000   0.00000   0.00000   0.00000  -0.00002
 121 9   H  1S         -0.00002  -0.00004   0.00000   0.00002   0.00012
 122        2S         -0.00002  -0.00090   0.00014  -0.00021  -0.00305
 123        3S         -0.00009  -0.00006   0.00015   0.00015   0.00137
 124        4PX        -0.00003   0.00021   0.00001   0.00007   0.00098
 125        4PY         0.00001  -0.00011  -0.00006  -0.00003  -0.00061
 126        4PZ         0.00003   0.00024  -0.00006   0.00003   0.00181
 127 10  H  1S          0.00000  -0.00001   0.00005  -0.00006   0.00000
 128        2S         -0.00142  -0.00281  -0.00191  -0.00010  -0.00124
 129        3S          0.00025   0.00024  -0.00016  -0.00009  -0.00021
 130        4PX         0.00011  -0.00015  -0.00029   0.00002   0.00011
 131        4PY        -0.00034  -0.00190  -0.00033  -0.00007  -0.00022
 132        4PZ         0.00000   0.00000   0.00000   0.00000   0.00000
 133 11  H  1S          0.00010  -0.00015  -0.00011   0.00030  -0.00006
 134        2S         -0.00143   0.00047  -0.00137  -0.00540   0.00046
 135        3S         -0.00067   0.00043   0.00047   0.00079   0.00052
 136        4PX        -0.00015  -0.00009  -0.00015   0.00013  -0.00001
 137        4PY        -0.00024  -0.00007  -0.00055  -0.00272   0.00003
 138        4PZ         0.00000   0.00000   0.00000   0.00000   0.00000
 139 12  H  1S         -0.00001   0.00003   0.00005  -0.00014   0.00000
 140        2S         -0.00014  -0.00028  -0.00056  -0.00085   0.00006
 141        3S         -0.00004   0.00006   0.00013   0.00058  -0.00005
 142        4PX         0.00002  -0.00008  -0.00007  -0.00022   0.00001
 143        4PY         0.00000  -0.00001  -0.00002  -0.00028   0.00002
 144        4PZ         0.00006   0.00006   0.00013   0.00032   0.00001
 145 13  H  1S         -0.00001  -0.00004  -0.00008   0.00004  -0.00004
 146        2S         -0.00001  -0.00004  -0.00019  -0.00168   0.00031
 147        3S         -0.00017   0.00024   0.00000  -0.00060   0.00022
 148        4PX        -0.00008   0.00007   0.00006   0.00019   0.00001
 149        4PY        -0.00003   0.00001   0.00006   0.00041  -0.00004
 150        4PZ         0.00000   0.00000   0.00000   0.00000   0.00000
 151 14  H  1S         -0.00001   0.00003   0.00005  -0.00014   0.00000
 152        2S         -0.00014  -0.00028  -0.00056  -0.00085   0.00006
 153        3S         -0.00004   0.00007   0.00013   0.00058  -0.00005
 154        4PX         0.00002  -0.00008  -0.00007  -0.00022   0.00001
 155        4PY         0.00000  -0.00001  -0.00002  -0.00028   0.00002
 156        4PZ        -0.00006  -0.00006  -0.00013  -0.00031  -0.00001
                           6         7         8         9        10
                           O         O         O         O         O
     Eigenvalues --   -10.16986  -1.02600  -0.91797  -0.78726  -0.71377
   1 1   C  1S          0.00001  -0.01200  -0.04167   0.02590  -0.08083
   2        2S          0.00002  -0.01832  -0.06412   0.04004  -0.12554
   3        2PX        -0.00002  -0.01211  -0.03379   0.01022   0.00121
   4        2PY         0.00001  -0.00293  -0.01628   0.00427  -0.00269
   5        2PZ         0.00000   0.00000  -0.00001   0.00001  -0.00004
   6        3S         -0.00009   0.04576   0.16719  -0.10625   0.33781
   7        3PX         0.00008  -0.01955  -0.05602   0.01717  -0.00531
   8        3PY        -0.00006  -0.00470  -0.02819   0.00742  -0.00781
   9        3PZ         0.00000  -0.00001   0.00000   0.00002  -0.00006
  10        4S          0.00115   0.00024   0.04996  -0.03887   0.17187
  11        4PX        -0.00047   0.00178  -0.00024  -0.00052   0.01310
  12        4PY        -0.00013  -0.00236  -0.00664  -0.00127   0.00217
  13        4PZ         0.00000   0.00007   0.00002  -0.00001  -0.00001
  14        5D 0        0.00001  -0.00378  -0.00819   0.00267  -0.00157
  15        5D+1        0.00000   0.00000  -0.00001   0.00000   0.00000
  16        5D-1        0.00000  -0.00001   0.00000   0.00000   0.00001
  17        5D+2       -0.00003   0.00342   0.00812  -0.00207   0.00020
  18        5D-2        0.00000   0.00272   0.01043  -0.00261   0.00205
  19 2   N  1S          0.00000  -0.03819  -0.09838   0.01024   0.01546
  20        2S          0.00003  -0.05990  -0.15479   0.01624   0.02449
  21        2PX        -0.00005  -0.01236  -0.00064  -0.03480   0.09840
  22        2PY         0.00001   0.01403   0.00014  -0.00822   0.01779
  23        2PZ         0.00000   0.00000   0.00000   0.00001  -0.00002
  24        3S         -0.00028   0.16438   0.42501  -0.04581  -0.06941
  25        3PX         0.00026  -0.01981   0.00169  -0.05177   0.14701
  26        3PY        -0.00009   0.02342   0.00163  -0.01225   0.02632
  27        3PZ         0.00000   0.00000   0.00000   0.00001  -0.00004
  28        4S          0.00169   0.09266   0.31492  -0.04339  -0.04853
  29        4PX        -0.00149   0.00580  -0.00494  -0.03339   0.08610
  30        4PY         0.00037   0.02438   0.01467  -0.00965   0.01543
  31        4PZ         0.00000  -0.00003  -0.00001   0.00001  -0.00002
  32        5D 0       -0.00002  -0.00452  -0.01082   0.00055   0.00083
  33        5D+1        0.00000   0.00000   0.00000   0.00000   0.00000
  34        5D-1        0.00000   0.00000   0.00000   0.00000   0.00000
  35        5D+2       -0.00005   0.00008   0.00387   0.00241   0.00158
  36        5D-2        0.00001  -0.00390   0.00067  -0.00191   0.00882
  37 3   C  1S          0.00004  -0.07182  -0.01096  -0.02596   0.03815
  38        2S          0.00008  -0.10953  -0.01731  -0.04057   0.05960
  39        2PX        -0.00010   0.01251   0.04189  -0.04382  -0.01950
  40        2PY        -0.00004   0.06498  -0.07876  -0.05052   0.05501
  41        2PZ         0.00000  -0.00001   0.00000   0.00000  -0.00001
  42        3S         -0.00036   0.29046   0.04726   0.11362  -0.16893
  43        3PX         0.00051   0.02027   0.06163  -0.06589  -0.02973
  44        3PY         0.00026   0.08083  -0.10758  -0.07066   0.07490
  45        3PZ         0.00000  -0.00001   0.00000   0.00000  -0.00002
  46        4S          0.00044   0.07144   0.00126   0.02614  -0.07286
  47        4PX        -0.00287  -0.00800  -0.01882  -0.00381   0.00715
  48        4PY         0.00102  -0.03315   0.00146  -0.02271   0.02035
  49        4PZ         0.00000   0.00001   0.00000   0.00000   0.00000
  50        5D 0       -0.00001  -0.01777  -0.00240  -0.00282   0.00501
  51        5D+1        0.00000   0.00000   0.00000   0.00000   0.00000
  52        5D-1        0.00000   0.00000   0.00000   0.00000   0.00000
  53        5D+2       -0.00019  -0.01888   0.01670   0.00705   0.00274
  54        5D-2       -0.00016  -0.00319  -0.01145   0.00506   0.00705
  55 4   C  1S         -0.00263  -0.01457  -0.00715  -0.08609  -0.00143
  56        2S         -0.00216  -0.02246  -0.01112  -0.13418  -0.00222
  57        2PX        -0.00056   0.01065   0.00912  -0.00928  -0.05556
  58        2PY         0.00028   0.00967  -0.00428   0.01613   0.00748
  59        2PZ         0.00000   0.00000   0.00000   0.00001  -0.00001
  60        3S          0.00031   0.05902   0.02941   0.35913   0.00538
  61        3PX         0.00154   0.01808   0.01386  -0.01426  -0.08614
  62        3PY        -0.00092   0.01760  -0.00518   0.02962   0.01005
  63        3PZ         0.00000   0.00000   0.00000   0.00001  -0.00001
  64        4S          0.00037   0.00955   0.00749   0.23028   0.01599
  65        4PX        -0.00182  -0.01388   0.01337  -0.01151  -0.02755
  66        4PY        -0.00123   0.01241  -0.01734   0.02474   0.01075
  67        4PZ         0.00000  -0.00001   0.00000   0.00000  -0.00001
  68        5D 0        0.00026  -0.00121  -0.00096  -0.00415  -0.00019
  69        5D+1        0.00000   0.00000   0.00000   0.00000   0.00000
  70        5D-1        0.00000   0.00000   0.00000   0.00000   0.00000
  71        5D+2       -0.00066   0.00013   0.00513   0.00730  -0.00147
  72        5D-2        0.00081   0.00530  -0.00061  -0.00197  -0.00863
  73 5   C  1S          0.56295  -0.00390   0.00014  -0.06954  -0.05299
  74        2S          0.46323  -0.00601   0.00020  -0.10736  -0.08207
  75        2PX         0.00014   0.00362  -0.00023   0.02680   0.00014
  76        2PY        -0.00027   0.00000  -0.00098  -0.01358  -0.00335
  77        2PZ         0.00000   0.00000   0.00000   0.00001   0.00000
  78        3S          0.01864   0.01566   0.00020   0.28227   0.21655
  79        3PX        -0.00086   0.00772   0.00065   0.04588   0.00175
  80        3PY         0.00074  -0.00058  -0.00112  -0.02335  -0.00637
  81        3PZ         0.00000   0.00000   0.00000   0.00001   0.00000
  82        4S         -0.00693  -0.00940   0.01070   0.11245   0.11776
  83        4PX        -0.00091  -0.00384   0.00081  -0.00717  -0.00376
  84        4PY         0.00084   0.00059  -0.00165  -0.00485  -0.00102
  85        4PZ         0.00000   0.00000  -0.00001   0.00000   0.00000
  86        5D 0        0.00012  -0.00140   0.00045  -0.00458  -0.00028
  87        5D+1        0.00000   0.00000   0.00000   0.00000   0.00000
  88        5D-1        0.00000   0.00000   0.00000   0.00000   0.00000
  89        5D+2       -0.00020   0.00136   0.00014   0.00519  -0.00040
  90        5D-2        0.00036  -0.00080   0.00004  -0.00589  -0.00082
  91 6   O  1S          0.00000  -0.09448   0.05060   0.02213  -0.01312
  92        2S          0.00001  -0.15088   0.08111   0.03569  -0.02124
  93        2PX        -0.00001   0.00188   0.00641  -0.01178  -0.00182
  94        2PY        -0.00004  -0.06828   0.02677   0.00393   0.00550
  95        2PZ         0.00000   0.00000   0.00000   0.00000  -0.00001
  96        3S          0.00000   0.43131  -0.23456  -0.10573   0.06268
  97        3PX         0.00005   0.00278   0.00937  -0.01786  -0.00276
  98        3PY         0.00019  -0.10004   0.03871   0.00590   0.00601
  99        3PZ         0.00000   0.00000   0.00000   0.00000  -0.00001
 100        4S         -0.00079   0.31159  -0.17493  -0.07655   0.05754
 101        4PX         0.00034   0.00342   0.00860  -0.00942  -0.00304
 102        4PY        -0.00001  -0.04291   0.01512  -0.00133   0.00543
 103        4PZ         0.00000  -0.00001   0.00000   0.00000  -0.00001
 104        5D 0        0.00000  -0.00570   0.00203   0.00019  -0.00028
 105        5D+1        0.00000   0.00000   0.00000   0.00000   0.00000
 106        5D-1        0.00000   0.00000   0.00000   0.00000   0.00000
 107        5D+2        0.00003  -0.01307   0.00543   0.00137   0.00010
 108        5D-2       -0.00002  -0.00075  -0.00234   0.00279   0.00105
 109 7   H  1S          0.00001   0.00432   0.01934  -0.01607   0.06322
 110        2S         -0.00017   0.00630   0.02347  -0.02009   0.07629
 111        3S          0.00000  -0.00041  -0.00097  -0.00154   0.00669
 112        4PX         0.00004  -0.00129  -0.00415   0.00223  -0.00631
 113        4PY        -0.00001   0.00053   0.00116  -0.00085   0.00340
 114        4PZ        -0.00002   0.00129   0.00433  -0.00310   0.01044
 115 8   H  1S          0.00001   0.00723   0.01895  -0.01720   0.06027
 116        2S         -0.00015   0.01112   0.02579  -0.02134   0.07202
 117        3S          0.00006   0.00451  -0.00074  -0.00136   0.00642
 118        4PX        -0.00003  -0.00087   0.00042   0.00010   0.00213
 119        4PY         0.00001  -0.00186  -0.00643   0.00395  -0.01231
 120        4PZ         0.00000   0.00002   0.00006  -0.00003   0.00011
 121 9   H  1S          0.00001   0.00434   0.01931  -0.01605   0.06313
 122        2S         -0.00018   0.00626   0.02344  -0.02005   0.07619
 123        3S          0.00000  -0.00043  -0.00099  -0.00152   0.00665
 124        4PX         0.00004  -0.00127  -0.00411   0.00221  -0.00623
 125        4PY        -0.00001   0.00051   0.00109  -0.00079   0.00320
 126        4PZ         0.00002  -0.00132  -0.00439   0.00314  -0.01056
 127 10  H  1S         -0.00002   0.01965   0.07402  -0.00199  -0.02964
 128        2S         -0.00013   0.02785   0.07228  -0.00222  -0.03240
 129        3S          0.00027  -0.00154   0.00170  -0.00073  -0.00232
 130        4PX         0.00005  -0.00066   0.00103  -0.00208   0.00496
 131        4PY        -0.00005   0.00693   0.01738  -0.00057  -0.00560
 132        4PZ         0.00000   0.00000   0.00000   0.00000   0.00000
 133 11  H  1S         -0.00007   0.00436   0.00756   0.05425  -0.00500
 134        2S         -0.00111   0.01082   0.00368   0.06535  -0.00608
 135        3S         -0.00022   0.00185  -0.00415   0.00142   0.00065
 136        4PX         0.00018   0.00106   0.00038  -0.00054  -0.00292
 137        4PY        -0.00044   0.00221   0.00181   0.01286  -0.00115
 138        4PZ         0.00000   0.00000   0.00000  -0.00001   0.00000
 139 12  H  1S          0.00010   0.00129  -0.00001   0.04396   0.04197
 140        2S         -0.00240   0.00282  -0.00031   0.05250   0.04953
 141        3S          0.00139  -0.00092  -0.00038  -0.00067   0.00416
 142        4PX        -0.00096   0.00053   0.00019   0.00679   0.00436
 143        4PY        -0.00061   0.00027  -0.00007   0.00206   0.00202
 144        4PZ         0.00162  -0.00061   0.00012  -0.00767  -0.00659
 145 13  H  1S          0.00013   0.00319  -0.00108   0.04294   0.03865
 146        2S         -0.00287   0.00535  -0.00205   0.05264   0.04494
 147        3S          0.00128   0.00245  -0.00261  -0.00037   0.00466
 148        4PX         0.00033   0.00071  -0.00074  -0.00050  -0.00071
 149        4PY         0.00211  -0.00082   0.00020  -0.01070  -0.00791
 150        4PZ         0.00000   0.00000   0.00000   0.00001   0.00000
 151 14  H  1S          0.00010   0.00129  -0.00001   0.04396   0.04197
 152        2S         -0.00240   0.00282  -0.00032   0.05250   0.04953
 153        3S          0.00139  -0.00092  -0.00038  -0.00067   0.00416
 154        4PX        -0.00096   0.00053   0.00019   0.00679   0.00436
 155        4PY        -0.00062   0.00027  -0.00007   0.00207   0.00203
 156        4PZ        -0.00162   0.00061  -0.00012   0.00767   0.00659
                          11        12        13        14        15
                           O         O         O         O         O
     Eigenvalues --    -0.63819  -0.57690  -0.51198  -0.47764  -0.45440
   1 1   C  1S          0.04921  -0.00700  -0.01036   0.01133  -0.00002
   2        2S          0.07671  -0.01086  -0.01620   0.01782  -0.00003
   3        2PX        -0.03308  -0.01067   0.06055  -0.13462  -0.00008
   4        2PY        -0.01980   0.05549  -0.01125  -0.05204   0.00011
   5        2PZ         0.00002   0.00001   0.00004  -0.00010   0.14669
   6        3S         -0.20721   0.02855   0.04178  -0.04364   0.00008
   7        3PX        -0.04527  -0.01670   0.09048  -0.19509  -0.00010
   8        3PY        -0.02729   0.08369  -0.01720  -0.07633   0.00014
   9        3PZ         0.00003   0.00001   0.00007  -0.00015   0.21403
  10        4S         -0.14113   0.01763   0.05284  -0.08826   0.00020
  11        4PX        -0.02244  -0.00373   0.04305  -0.09136  -0.00002
  12        4PY        -0.01022   0.04353  -0.01198  -0.02839   0.00002
  13        4PZ         0.00004  -0.00013   0.00000  -0.00016   0.12649
  14        5D 0       -0.00411  -0.00277   0.00842  -0.01398   0.00032
  15        5D+1       -0.00001   0.00006  -0.00004  -0.00001   0.00272
  16        5D-1        0.00000  -0.00013   0.00010  -0.00003  -0.01277
  17        5D+2        0.00321   0.00582  -0.00580   0.01340   0.00014
  18        5D-2        0.00688  -0.01172  -0.00331   0.01717   0.00018
  19 2   N  1S         -0.03431   0.01041   0.00918  -0.01529  -0.00003
  20        2S         -0.05460   0.01650   0.01482  -0.02455  -0.00006
  21        2PX        -0.00837  -0.07960  -0.02497   0.14056   0.00013
  22        2PY        -0.03781   0.16865  -0.06164   0.07575   0.00005
  23        2PZ         0.00002  -0.00001   0.00002  -0.00008   0.12156
  24        3S          0.15693  -0.04572  -0.04416   0.07514   0.00016
  25        3PX        -0.01250  -0.11824  -0.03625   0.20545   0.00021
  26        3PY        -0.05592   0.24567  -0.09167   0.10978   0.00007
  27        3PZ         0.00003  -0.00001   0.00003  -0.00012   0.18421
  28        4S          0.13636  -0.03941  -0.05029   0.07177   0.00028
  29        4PX        -0.00755  -0.06404  -0.01772   0.16668   0.00005
  30        4PY        -0.03510   0.16060  -0.05936   0.08478   0.00011
  31        4PZ         0.00001   0.00004   0.00003  -0.00007   0.15248
  32        5D 0       -0.00085   0.00070   0.00042   0.00110   0.00001
  33        5D+1        0.00000   0.00000   0.00000   0.00000   0.00222
  34        5D-1        0.00000   0.00000   0.00000   0.00000   0.00675
  35        5D+2       -0.00864   0.00869   0.00154   0.00375  -0.00001
  36        5D-2       -0.00262  -0.00768  -0.00026   0.00648   0.00002
  37 3   C  1S          0.02759  -0.04146  -0.03549  -0.00266   0.00002
  38        2S          0.04333  -0.06517  -0.05611  -0.00424   0.00003
  39        2PX         0.06687   0.09398  -0.08891  -0.05374  -0.00003
  40        2PY         0.03372  -0.03188  -0.02001   0.05148   0.00010
  41        2PZ         0.00000  -0.00001   0.00001  -0.00004   0.09304
  42        3S         -0.12367   0.19095   0.16426   0.01375  -0.00008
  43        3PX         0.09695   0.13503  -0.12454  -0.07615  -0.00006
  44        3PY         0.04685  -0.04161  -0.02542   0.07353   0.00016
  45        3PZ         0.00001  -0.00001   0.00001  -0.00005   0.14374
  46        4S         -0.06106   0.10108   0.12274   0.02967  -0.00008
  47        4PX         0.03288   0.02878  -0.06423  -0.03394  -0.00013
  48        4PY         0.02766  -0.03367  -0.04955  -0.02425   0.00004
  49        4PZ         0.00000  -0.00004   0.00001  -0.00004   0.07951
  50        5D 0        0.00131  -0.00483  -0.00092   0.00062   0.00000
  51        5D+1        0.00000  -0.00001   0.00001   0.00000   0.00680
  52        5D-1        0.00000   0.00000   0.00000   0.00001   0.00058
  53        5D+2       -0.00251   0.01628  -0.00075   0.01903   0.00000
  54        5D-2       -0.01400  -0.00277  -0.00837   0.00491  -0.00002
  55 4   C  1S          0.05417   0.02525   0.02887  -0.01713  -0.00001
  56        2S          0.08501   0.03988   0.04546  -0.02715  -0.00002
  57        2PX        -0.06362   0.00432   0.07463  -0.02674  -0.00008
  58        2PY         0.00908   0.01980   0.13298   0.07500   0.00002
  59        2PZ        -0.00002  -0.00001  -0.00002  -0.00003   0.05557
  60        3S         -0.23403  -0.11005  -0.12310   0.07940   0.00005
  61        3PX        -0.09763   0.00458   0.11232  -0.03652  -0.00011
  62        3PY         0.01236   0.02735   0.19395   0.10747   0.00002
  63        3PZ        -0.00002  -0.00002  -0.00003  -0.00004   0.08835
  64        4S         -0.15574  -0.08845  -0.13700   0.05382  -0.00001
  65        4PX        -0.03674  -0.01851   0.02478  -0.06574  -0.00013
  66        4PY         0.00852   0.01575   0.11101   0.07882   0.00001
  67        4PZ        -0.00001   0.00001  -0.00002  -0.00003   0.06330
  68        5D 0       -0.00125  -0.00014  -0.00199   0.00191   0.00000
  69        5D+1        0.00000   0.00000   0.00000   0.00000   0.00414
  70        5D-1        0.00000   0.00000   0.00001   0.00000   0.00592
  71        5D+2        0.00363   0.00775   0.00884  -0.00157  -0.00001
  72        5D-2       -0.01083  -0.00120   0.01007  -0.00015   0.00000
  73 5   C  1S         -0.05989  -0.01887  -0.01060   0.00661   0.00001
  74        2S         -0.09315  -0.02945  -0.01665   0.01038   0.00001
  75        2PX        -0.03889  -0.02727  -0.00873   0.07694   0.00007
  76        2PY         0.01220   0.01244   0.07681   0.01010  -0.00001
  77        2PZ         0.00000   0.00000   0.00000  -0.00001   0.05301
  78        3S          0.24817   0.07986   0.04491  -0.02569  -0.00003
  79        3PX        -0.05669  -0.04027  -0.01052   0.11189   0.00010
  80        3PY         0.01757   0.01891   0.11289   0.01430  -0.00002
  81        3PZ         0.00000   0.00000  -0.00001  -0.00001   0.07745
  82        4S          0.16397   0.04787   0.02770  -0.06854  -0.00008
  83        4PX        -0.02264  -0.02478  -0.01237   0.04635   0.00004
  84        4PY         0.00773   0.01375   0.06802   0.02495   0.00001
  85        4PZ         0.00000  -0.00001  -0.00001  -0.00001   0.04234
  86        5D 0        0.00472   0.00344  -0.00139  -0.00799   0.00000
  87        5D+1        0.00000   0.00000  -0.00001   0.00000  -0.00103
  88        5D-1        0.00000   0.00000  -0.00001  -0.00001  -0.00448
  89        5D+2       -0.00494  -0.00184   0.00148   0.00506   0.00001
  90        5D-2        0.00552   0.00488   0.01132  -0.00416  -0.00001
  91 6   O  1S         -0.01484   0.02805   0.01930   0.01965   0.00000
  92        2S         -0.02405   0.04540   0.03136   0.03177   0.00000
  93        2PX         0.01248   0.03630  -0.05275  -0.02773  -0.00008
  94        2PY         0.00904  -0.03012  -0.03735  -0.05198  -0.00005
  95        2PZ         0.00000  -0.00001   0.00002  -0.00001   0.06649
  96        3S          0.07238  -0.13592  -0.09520  -0.09580   0.00001
  97        3PX         0.01938   0.05239  -0.07681  -0.04163  -0.00012
  98        3PY         0.01181  -0.04172  -0.05070  -0.07443  -0.00008
  99        3PZ         0.00001  -0.00002   0.00002  -0.00001   0.09794
 100        4S          0.06217  -0.13292  -0.09704  -0.09974  -0.00003
 101        4PX         0.00848   0.03692  -0.05311  -0.02942  -0.00009
 102        4PY         0.01049  -0.03069  -0.03937  -0.05650  -0.00003
 103        4PZ         0.00000  -0.00001   0.00002   0.00000   0.07519
 104        5D 0        0.00056  -0.00225  -0.00211  -0.00392   0.00000
 105        5D+1        0.00000   0.00000   0.00000   0.00000   0.00035
 106        5D-1        0.00000   0.00000   0.00000   0.00000  -0.00945
 107        5D+2        0.00028  -0.00196  -0.00254  -0.00507  -0.00001
 108        5D-2       -0.00401  -0.00638   0.00733   0.00447   0.00001
 109 7   H  1S         -0.04985  -0.00686   0.03686  -0.05796  -0.09473
 110        2S         -0.05941  -0.00576   0.04388  -0.07319  -0.12339
 111        3S         -0.00892  -0.00237   0.01630  -0.02478  -0.06073
 112        4PX         0.00297  -0.00055   0.00050  -0.00258   0.00764
 113        4PY        -0.00328   0.00254   0.00055  -0.00458  -0.00382
 114        4PZ        -0.00701  -0.00106   0.00424  -0.00681  -0.00378
 115 8   H  1S         -0.05008   0.04364  -0.00570  -0.04272  -0.00104
 116        2S         -0.05851   0.05007  -0.00698  -0.05267  -0.00134
 117        3S         -0.00678   0.00474  -0.01089  -0.02644  -0.00062
 118        4PX        -0.00354   0.00115   0.00373  -0.00681  -0.00002
 119        4PY         0.00821  -0.00438  -0.00017   0.00280   0.00018
 120        4PZ        -0.00008   0.00007  -0.00001  -0.00006   0.00906
 121 9   H  1S         -0.04987  -0.00622   0.03648  -0.05805   0.09565
 122        2S         -0.05946  -0.00494   0.04344  -0.07323   0.12442
 123        3S         -0.00893  -0.00209   0.01608  -0.02481   0.06123
 124        4PX         0.00293  -0.00062   0.00056  -0.00264  -0.00760
 125        4PY        -0.00315   0.00259   0.00046  -0.00445   0.00363
 126        4PZ         0.00710   0.00097  -0.00423   0.00688  -0.00403
 127 10  H  1S          0.05990  -0.13434   0.03579  -0.05580  -0.00001
 128        2S          0.06417  -0.15480   0.04175  -0.07139  -0.00004
 129        3S          0.01602  -0.04672   0.01122  -0.02873   0.00001
 130        4PX         0.00116  -0.00585   0.00057   0.00953   0.00000
 131        4PY         0.00884  -0.01503   0.00413  -0.00530  -0.00001
 132        4PZ         0.00000   0.00000   0.00000   0.00000   0.00950
 133 11  H  1S         -0.05456  -0.04051  -0.12450  -0.04153   0.00002
 134        2S         -0.06482  -0.05160  -0.15360  -0.04938   0.00003
 135        3S         -0.00721  -0.01491  -0.04749  -0.01992   0.00001
 136        4PX        -0.00194  -0.00114   0.00512  -0.00218   0.00000
 137        4PY        -0.00938  -0.00489  -0.01281  -0.00309   0.00000
 138        4PZ         0.00000   0.00000   0.00001   0.00000   0.00350
 139 12  H  1S          0.06284   0.02551  -0.00076  -0.04260   0.03492
 140        2S          0.07659   0.03270   0.00161  -0.05362   0.04679
 141        3S          0.01244   0.00813   0.00022  -0.02028   0.02118
 142        4PX         0.00391   0.00094  -0.00055   0.00110   0.00309
 143        4PY         0.00352   0.00171   0.00439  -0.00111   0.00152
 144        4PZ        -0.00904  -0.00334   0.00020   0.00512  -0.00125
 145 13  H  1S          0.05475   0.02148   0.06561   0.00681  -0.00004
 146        2S          0.06355   0.02542   0.08034   0.00939  -0.00005
 147        3S          0.01094  -0.00300   0.01367  -0.00762  -0.00003
 148        4PX        -0.00314  -0.00295  -0.00193   0.00412   0.00000
 149        4PY        -0.00920  -0.00336  -0.00701  -0.00122   0.00001
 150        4PZ         0.00001   0.00000   0.00001   0.00000   0.00364
 151 14  H  1S          0.06285   0.02551  -0.00082  -0.04263  -0.03497
 152        2S          0.07660   0.03270   0.00153  -0.05365  -0.04684
 153        3S          0.01244   0.00814   0.00020  -0.02029  -0.02120
 154        4PX         0.00392   0.00094  -0.00056   0.00110  -0.00309
 155        4PY         0.00353   0.00171   0.00438  -0.00112  -0.00153
 156        4PZ         0.00903   0.00333  -0.00021  -0.00512  -0.00124
                          16        17        18        19        20
                           O         O         O         O         O
     Eigenvalues --    -0.42749  -0.42231  -0.40119  -0.38735  -0.38165
   1 1   C  1S          0.00001  -0.00060  -0.00361  -0.00272  -0.00004
   2        2S          0.00001  -0.00118  -0.00587  -0.00420  -0.00007
   3        2PX         0.00017  -0.04384  -0.06064  -0.07469  -0.00110
   4        2PY        -0.00051   0.08889  -0.06314   0.15651   0.00256
   5        2PZ        -0.09284  -0.00023   0.00000   0.00123  -0.09775
   6        3S         -0.00005   0.00720   0.02215   0.00983   0.00012
   7        3PX         0.00025  -0.06763  -0.09082  -0.10492  -0.00156
   8        3PY        -0.00074   0.13040  -0.09282   0.22378   0.00366
   9        3PZ        -0.13486  -0.00036   0.00000   0.00177  -0.14057
  10        4S         -0.00007   0.01293   0.00727   0.02154   0.00066
  11        4PX         0.00011  -0.04949  -0.05496  -0.06974  -0.00126
  12        4PY        -0.00029   0.07521  -0.06509   0.17418   0.00331
  13        4PZ        -0.08275  -0.00017   0.00012   0.00061  -0.08412
  14        5D 0       -0.00018  -0.00844  -0.00356  -0.01398  -0.00046
  15        5D+1       -0.00588   0.00014  -0.00006   0.00044  -0.01452
  16        5D-1        0.00717  -0.00027   0.00007  -0.00055   0.00533
  17        5D+2       -0.00005  -0.00580   0.00905  -0.01849  -0.00041
  18        5D-2       -0.00011  -0.00152   0.00945   0.00146  -0.00014
  19 2   N  1S          0.00004  -0.00644   0.00269   0.00527   0.00009
  20        2S          0.00006  -0.01029   0.00430   0.00867   0.00015
  21        2PX         0.00004  -0.01862   0.08085   0.03952   0.00041
  22        2PY         0.00005   0.01142   0.05224  -0.07252  -0.00115
  23        2PZ        -0.02923  -0.00018   0.00013  -0.00094   0.05532
  24        3S         -0.00017   0.02785  -0.01272  -0.02861  -0.00046
  25        3PX         0.00003  -0.02401   0.12053   0.05690   0.00057
  26        3PY         0.00008   0.01654   0.07710  -0.10381  -0.00162
  27        3PZ        -0.04432  -0.00027   0.00020  -0.00144   0.08384
  28        4S         -0.00042   0.07207   0.00585  -0.03068  -0.00067
  29        4PX         0.00024  -0.06232   0.07101   0.04933   0.00059
  30        4PY        -0.00002  -0.00030   0.04890  -0.05066  -0.00104
  31        4PZ        -0.03873  -0.00022   0.00014  -0.00103   0.06802
  32        5D 0        0.00000  -0.00075  -0.00043  -0.00106  -0.00003
  33        5D+1       -0.00742   0.00000  -0.00001   0.00022  -0.01454
  34        5D-1       -0.00100  -0.00002   0.00001  -0.00009   0.00354
  35        5D+2        0.00002  -0.00101   0.01212  -0.01461  -0.00024
  36        5D-2       -0.00004   0.00703   0.00454   0.01174   0.00018
  37 3   C  1S         -0.00011   0.03207  -0.00301  -0.00551  -0.00005
  38        2S         -0.00018   0.05081  -0.00489  -0.00861  -0.00008
  39        2PX         0.00005  -0.00751  -0.06716  -0.07314  -0.00104
  40        2PY         0.00023  -0.10372  -0.05365   0.05692   0.00072
  41        2PZ         0.03411  -0.00006   0.00019  -0.00208   0.14089
  42        3S          0.00057  -0.15970   0.01156   0.02433   0.00023
  43        3PX         0.00012  -0.01549  -0.09480  -0.10344  -0.00142
  44        3PY         0.00031  -0.15090  -0.07746   0.08290   0.00103
  45        3PZ         0.05385  -0.00008   0.00028  -0.00313   0.21331
  46        4S          0.00054  -0.13796   0.02111   0.00346   0.00013
  47        4PX         0.00012  -0.00901  -0.07226  -0.07451  -0.00111
  48        4PY        -0.00019   0.05348   0.00483  -0.01954  -0.00030
  49        4PZ         0.03230  -0.00009   0.00024  -0.00259   0.17071
  50        5D 0       -0.00001   0.00207   0.00217  -0.00051  -0.00002
  51        5D+1       -0.00866  -0.00004   0.00002  -0.00010   0.00354
  52        5D-1        0.00144  -0.00002   0.00002  -0.00025   0.01651
  53        5D+2       -0.00004   0.01684  -0.00183  -0.01249  -0.00014
  54        5D-2        0.00002  -0.00165   0.01080   0.00708   0.00011
  55 4   C  1S          0.00004  -0.00855   0.00678   0.00452   0.00005
  56        2S          0.00006  -0.01369   0.01073   0.00724   0.00007
  57        2PX         0.00009   0.00658   0.15469   0.04571   0.00050
  58        2PY        -0.00017   0.03706  -0.07176  -0.00636   0.00014
  59        2PZ         0.08490   0.00024   0.00001  -0.00038   0.03406
  60        3S         -0.00018   0.04044  -0.03223  -0.02131  -0.00021
  61        3PX         0.00013   0.00794   0.22741   0.06670   0.00072
  62        3PY        -0.00025   0.05311  -0.10448  -0.00864   0.00021
  63        3PZ         0.13639   0.00039   0.00001  -0.00061   0.05359
  64        4S         -0.00019   0.06267  -0.04048  -0.04816  -0.00071
  65        4PX        -0.00006   0.06670   0.16414   0.02227   0.00016
  66        4PY        -0.00007   0.00947  -0.09012  -0.00225   0.00012
  67        4PZ         0.09302   0.00029  -0.00001  -0.00036   0.03708
  68        5D 0        0.00000  -0.00012  -0.00012   0.00008   0.00001
  69        5D+1       -0.00940  -0.00005   0.00004  -0.00028   0.01877
  70        5D-1        0.00731   0.00002   0.00000  -0.00005   0.00422
  71        5D+2       -0.00001   0.00043  -0.00632  -0.00242  -0.00001
  72        5D-2        0.00003  -0.00957   0.01335   0.01027   0.00013
  73 5   C  1S          0.00001  -0.00135   0.00551   0.00328   0.00003
  74        2S          0.00001  -0.00218   0.00866   0.00519   0.00005
  75        2PX        -0.00029   0.06354  -0.14494  -0.06436  -0.00070
  76        2PY        -0.00011   0.07802   0.06205  -0.02434  -0.00044
  77        2PZ         0.16669   0.00064  -0.00028   0.00145  -0.08826
  78        3S         -0.00003   0.00773  -0.03027  -0.01701  -0.00017
  79        3PX        -0.00043   0.09271  -0.20799  -0.09237  -0.00100
  80        3PY        -0.00017   0.11604   0.09181  -0.03642  -0.00066
  81        3PZ         0.24147   0.00093  -0.00041   0.00208  -0.12652
  82        4S         -0.00006   0.03384   0.02984  -0.01018  -0.00010
  83        4PX        -0.00029   0.07099  -0.11512  -0.06305  -0.00069
  84        4PY        -0.00008   0.05731   0.04257  -0.02129  -0.00037
  85        4PZ         0.15014   0.00058  -0.00025   0.00129  -0.07900
  86        5D 0        0.00006  -0.00880   0.00898   0.00637   0.00006
  87        5D+1       -0.01062  -0.00006   0.00003  -0.00019   0.01260
  88        5D-1       -0.01257  -0.00007   0.00002  -0.00007   0.00486
  89        5D+2        0.00001  -0.00462  -0.00751   0.00312   0.00006
  90        5D-2        0.00000  -0.00033   0.01376   0.00452   0.00006
  91 6   O  1S          0.00010  -0.03405  -0.01163   0.01684   0.00023
  92        2S          0.00016  -0.05524  -0.01887   0.02747   0.00037
  93        2PX         0.00007  -0.00468  -0.03644  -0.01699  -0.00013
  94        2PY        -0.00046   0.17920   0.05840  -0.08593  -0.00105
  95        2PZ         0.02887  -0.00012   0.00020  -0.00227   0.15453
  96        3S         -0.00047   0.16524   0.05740  -0.08524  -0.00116
  97        3PX         0.00010  -0.00679  -0.05539  -0.02564  -0.00022
  98        3PY        -0.00063   0.24647   0.08079  -0.11642  -0.00143
  99        3PZ         0.04256  -0.00018   0.00029  -0.00332   0.22645
 100        4S         -0.00057   0.20757   0.06461  -0.09290  -0.00119
 101        4PX         0.00008  -0.00407  -0.03984  -0.01126   0.00001
 102        4PY        -0.00051   0.19680   0.06894  -0.10427  -0.00131
 103        4PZ         0.03292  -0.00014   0.00023  -0.00269   0.18453
 104        5D 0       -0.00002   0.00840   0.00333  -0.00443  -0.00006
 105        5D+1       -0.00053  -0.00001   0.00000  -0.00001   0.00023
 106        5D-1       -0.00377   0.00001  -0.00002   0.00026  -0.01746
 107        5D+2       -0.00004   0.01543   0.00456  -0.00553  -0.00006
 108        5D-2       -0.00001   0.00082   0.00566   0.00422   0.00005
 109 7   H  1S          0.06322  -0.03934  -0.01008  -0.07091   0.07186
 110        2S          0.08713  -0.05129  -0.01320  -0.10229   0.11070
 111        3S          0.04289  -0.03079  -0.00823  -0.05234   0.05695
 112        4PX        -0.00502   0.00006  -0.00235   0.00051  -0.00564
 113        4PY         0.00240   0.00412  -0.00364   0.00678   0.00292
 114        4PZ         0.00244  -0.00441  -0.00087  -0.00886   0.00254
 115 8   H  1S          0.00028   0.08113  -0.04539   0.14543   0.00319
 116        2S          0.00034   0.10065  -0.06266   0.19505   0.00414
 117        3S          0.00000   0.07338  -0.01788   0.07263   0.00144
 118        4PX         0.00003  -0.00082  -0.00387   0.00061   0.00007
 119        4PY        -0.00008  -0.00618   0.00291  -0.01284  -0.00032
 120        4PZ        -0.00541   0.00011  -0.00006   0.00027  -0.00530
 121 9   H  1S         -0.06351  -0.03821  -0.01060  -0.06642  -0.07476
 122        2S         -0.08744  -0.04978  -0.01400  -0.09545  -0.11487
 123        3S         -0.04293  -0.02993  -0.00858  -0.04874  -0.05887
 124        4PX         0.00499  -0.00005  -0.00231   0.00009   0.00563
 125        4PY        -0.00233   0.00423  -0.00365   0.00711  -0.00256
 126        4PZ         0.00256   0.00430   0.00095   0.00855   0.00300
 127 10  H  1S         -0.00009  -0.00160  -0.05615   0.06493   0.00104
 128        2S         -0.00011  -0.01347  -0.08457   0.11181   0.00174
 129        3S         -0.00007  -0.00210  -0.04010   0.05954   0.00095
 130        4PX         0.00001  -0.00150   0.00324   0.00183   0.00003
 131        4PY         0.00000  -0.00124  -0.00623   0.00569   0.00009
 132        4PZ        -0.00218  -0.00001   0.00001  -0.00008   0.00480
 133 11  H  1S          0.00013  -0.01968   0.06000   0.00498  -0.00011
 134        2S          0.00020  -0.03859   0.07969   0.01391  -0.00007
 135        3S          0.00010  -0.02154   0.03290   0.00950  -0.00002
 136        4PX         0.00000  -0.00055   0.00667   0.00397   0.00005
 137        4PY         0.00001  -0.00234   0.00569   0.00046  -0.00001
 138        4PZ         0.00532   0.00002   0.00000  -0.00003   0.00244
 139 12  H  1S          0.11600  -0.04603   0.05007   0.03565  -0.06698
 140        2S          0.15960  -0.06321   0.06809   0.04981  -0.10205
 141        3S          0.07724  -0.03324   0.03660   0.02935  -0.05529
 142        4PX         0.00989   0.00032  -0.00519  -0.00144  -0.00552
 143        4PY         0.00442   0.00339   0.00580  -0.00036  -0.00254
 144        4PZ        -0.00396   0.00574  -0.00585  -0.00407   0.00212
 145 13  H  1S         -0.00023   0.07427   0.03645  -0.03176  -0.00046
 146        2S         -0.00028   0.09204   0.04849  -0.04033  -0.00061
 147        3S         -0.00020   0.06991   0.03715  -0.03477  -0.00053
 148        4PX        -0.00001   0.00268  -0.00838  -0.00307  -0.00003
 149        4PY         0.00002  -0.00578  -0.00077   0.00272   0.00003
 150        4PZ         0.01013   0.00005  -0.00001   0.00008  -0.00474
 151 14  H  1S         -0.11559  -0.04704   0.05047   0.03352   0.06778
 152        2S         -0.15904  -0.06462   0.06866   0.04659   0.10317
 153        3S         -0.07695  -0.03393   0.03689   0.02765   0.05598
 154        4PX        -0.00991   0.00023  -0.00515  -0.00161   0.00549
 155        4PY        -0.00444   0.00334   0.00583  -0.00043   0.00252
 156        4PZ        -0.00390  -0.00578   0.00585   0.00400   0.00220
                          21        22        23        24        25
                           O         O         O         O         V
     Eigenvalues --    -0.37095  -0.26051  -0.25654  -0.22052   0.03100
   1 1   C  1S          0.00156   0.00005   0.00326   0.00002   0.01724
   2        2S          0.00264   0.00008   0.00518   0.00003   0.02674
   3        2PX         0.01347  -0.00014  -0.00904   0.00003  -0.04907
   4        2PY         0.01083  -0.00057  -0.03214  -0.00011   0.00580
   5        2PZ        -0.00006  -0.05522   0.00113   0.02513   0.00024
   6        3S         -0.01098  -0.00021  -0.01523  -0.00002  -0.04234
   7        3PX         0.02222  -0.00029  -0.01595   0.00003  -0.06000
   8        3PY         0.01424  -0.00076  -0.04547  -0.00016  -0.00052
   9        3PZ        -0.00006  -0.07704   0.00156   0.03451   0.00027
  10        4S         -0.00835  -0.00109  -0.04300  -0.00067  -0.72950
  11        4PX         0.01744  -0.00020  -0.03341   0.00013  -0.18467
  12        4PY         0.01924  -0.00206  -0.08088  -0.00059   0.03166
  13        4PZ        -0.00015  -0.09808   0.00306  -0.00271   0.00118
  14        5D 0        0.00078  -0.00027  -0.00216   0.00008   0.00555
  15        5D+1       -0.00001  -0.02673   0.00044   0.01532  -0.00010
  16        5D-1        0.00000  -0.00254   0.00005   0.00317   0.00014
  17        5D+2       -0.00226  -0.00013  -0.00208   0.00005   0.00568
  18        5D-2       -0.00184  -0.00009   0.00223   0.00006  -0.00814
  19 2   N  1S          0.00389   0.00031   0.01800   0.00000   0.02822
  20        2S          0.00626   0.00050   0.02865   0.00001   0.04528
  21        2PX        -0.00416   0.00094   0.05872   0.00007  -0.00091
  22        2PY        -0.01743  -0.00071  -0.04348  -0.00003   0.09045
  23        2PZ         0.00003   0.20943  -0.00332  -0.11565  -0.00004
  24        3S         -0.01863  -0.00141  -0.07997  -0.00004  -0.12173
  25        3PX        -0.00779   0.00124   0.07747   0.00008  -0.00002
  26        3PY        -0.02372  -0.00101  -0.06093  -0.00007   0.10978
  27        3PZ         0.00005   0.29823  -0.00467  -0.17122  -0.00003
  28        4S         -0.04156  -0.00383  -0.22995  -0.00005  -0.56428
  29        4PX         0.01210   0.00133   0.08616   0.00013   0.02278
  30        4PY         0.00179  -0.00063  -0.06048   0.00005   0.35282
  31        4PZ         0.00007   0.38514  -0.00647  -0.18989  -0.00027
  32        5D 0       -0.00018  -0.00006  -0.00311   0.00000   0.00188
  33        5D+1       -0.00001  -0.00572   0.00011  -0.00078   0.00001
  34        5D-1        0.00000  -0.00187   0.00003  -0.00069   0.00002
  35        5D+2       -0.00670   0.00006   0.00316   0.00001  -0.00959
  36        5D-2       -0.00257  -0.00006  -0.00300  -0.00001   0.00187
  37 3   C  1S          0.00209  -0.00009  -0.00477  -0.00001  -0.00269
  38        2S          0.00339  -0.00015  -0.00800  -0.00001  -0.00478
  39        2PX         0.05139  -0.00028  -0.01661   0.00000   0.00889
  40        2PY         0.08428  -0.00023  -0.01326  -0.00002   0.00357
  41        2PZ         0.00006   0.00092  -0.00007   0.01791  -0.00004
  42        3S         -0.00789   0.00047   0.02758   0.00003   0.01230
  43        3PX         0.07265  -0.00060  -0.03387  -0.00006   0.01175
  44        3PY         0.11824  -0.00042  -0.02387  -0.00003  -0.00395
  45        3PZ         0.00010   0.00621  -0.00020   0.03675  -0.00005
  46        4S         -0.03439  -0.00028  -0.00006  -0.00010  -0.12991
  47        4PX         0.04273   0.00192   0.11700   0.00032   0.04935
  48        4PY        -0.00025  -0.00029  -0.01758   0.00001   0.07631
  49        4PZ         0.00005  -0.04182   0.00077  -0.01190   0.00000
  50        5D 0       -0.00359   0.00004   0.00249   0.00001   0.00694
  51        5D+1        0.00000   0.01586  -0.00022  -0.03251   0.00001
  52        5D-1        0.00001  -0.04692   0.00079  -0.02030   0.00000
  53        5D+2       -0.01532   0.00002   0.00085   0.00000   0.01889
  54        5D-2        0.00517   0.00113   0.06878   0.00007   0.00046
  55 4   C  1S          0.00311  -0.00029  -0.01795  -0.00001   0.02188
  56        2S          0.00512  -0.00046  -0.02846  -0.00001   0.03494
  57        2PX        -0.00551   0.00102   0.06238   0.00002  -0.00147
  58        2PY        -0.10171   0.00088   0.05230   0.00011   0.07603
  59        2PZ         0.00002   0.04093  -0.00092   0.23809   0.00000
  60        3S         -0.01915   0.00130   0.08184   0.00001  -0.09490
  61        3PX        -0.01050   0.00139   0.08506   0.00003  -0.00384
  62        3PY        -0.14436   0.00125   0.07464   0.00016   0.06925
  63        3PZ         0.00003   0.05721  -0.00131   0.36474   0.00003
  64        4S         -0.01333   0.00422   0.25510   0.00036  -0.44990
  65        4PX        -0.01924   0.00133   0.07726   0.00009  -0.03888
  66        4PY        -0.09484   0.00150   0.08356   0.00028   0.50327
  67        4PZ         0.00004   0.11003  -0.00226   0.45026  -0.00014
  68        5D 0       -0.00129   0.00008   0.00527   0.00000  -0.00097
  69        5D+1        0.00001   0.00416  -0.00009   0.01117  -0.00001
  70        5D-1       -0.00001  -0.00269   0.00004   0.00083   0.00000
  71        5D+2       -0.02827   0.00002   0.00112   0.00000  -0.00814
  72        5D-2       -0.01273  -0.00004  -0.00228   0.00000  -0.00612
  73 5   C  1S         -0.00135  -0.00005  -0.00322  -0.00001   0.00780
  74        2S         -0.00215  -0.00008  -0.00520  -0.00002   0.01172
  75        2PX         0.03278  -0.00010  -0.00584   0.00001   0.02933
  76        2PY         0.16063   0.00032   0.02074   0.00001  -0.00078
  77        2PZ        -0.00012  -0.00915   0.00020  -0.05272   0.00000
  78        3S          0.00305   0.00030   0.01867   0.00005  -0.00666
  79        3PX         0.04616  -0.00015  -0.00829   0.00002   0.03873
  80        3PY         0.22754   0.00042   0.02709   0.00001  -0.00564
  81        3PZ        -0.00017  -0.01081   0.00025  -0.07172   0.00000
  82        4S          0.02909  -0.00007  -0.00062   0.00001  -0.48387
  83        4PX         0.03341  -0.00086  -0.05143  -0.00006   0.04963
  84        4PY         0.19115   0.00081   0.05698   0.00002  -0.02216
  85        4PZ        -0.00014  -0.06590   0.00110  -0.09893   0.00003
  86        5D 0       -0.01116   0.00004   0.00261  -0.00001   0.00430
  87        5D+1        0.00000   0.00628  -0.00013   0.03207   0.00001
  88        5D-1       -0.00003   0.00044   0.00000  -0.00310   0.00001
  89        5D+2       -0.02196   0.00005   0.00329   0.00000   0.00669
  90        5D-2       -0.00113   0.00002   0.00105   0.00001   0.00463
  91 6   O  1S          0.01758   0.00003   0.00065  -0.00001   0.00823
  92        2S          0.02866   0.00005   0.00113  -0.00001   0.01340
  93        2PX         0.02745   0.00458   0.28119   0.00031  -0.01115
  94        2PY        -0.10887   0.00011   0.00846   0.00002   0.02813
  95        2PZ         0.00008  -0.19414   0.00325  -0.08267  -0.00002
  96        3S         -0.08861  -0.00020  -0.00511   0.00003  -0.04113
  97        3PX         0.03984   0.00652   0.40052   0.00046  -0.01723
  98        3PY        -0.14785   0.00015   0.01125   0.00003   0.03310
  99        3PZ         0.00012  -0.27619   0.00461  -0.11709  -0.00003
 100        4S         -0.10156   0.00008   0.00683   0.00002  -0.09252
 101        4PX         0.02830   0.00649   0.39931   0.00041  -0.01668
 102        4PY        -0.13355   0.00000   0.00681   0.00003   0.07046
[...]
 117         V                 2.504552          4.123159
 118         V                 2.521846          4.978142
 119         V                 2.537496          4.362403
 120         V                 2.624723          4.314850
 121         V                 2.641189          4.525785
 122         V                 2.671803          5.266913
 123         V                 2.695671          4.584066
 124         V                 2.761182          4.683141
 125         V                 2.835694          4.453228
 126         V                 2.840178          5.821149
 127         V                 2.844975          4.748071
 128         V                 2.894555          4.678539
 129         V                 2.941129          4.794534
 130         V                 2.949958          4.963872
 131         V                 3.087872          6.601770
 132         V                 3.176263          5.339708
 133         V                 3.276111          6.682759
 134         V                 3.321134          6.948809
 135         V                 3.338829          5.155003
 136         V                 3.556351          5.783671
 137         V                 3.588373          6.633008
 138         V                 3.687135          7.087604
 139         V                 3.736083          6.698545
 140         V                 3.753771          6.319131
 141         V                 3.836107          6.438369
 142         V                 3.852936          6.543244
 143         V                 3.857379          8.009514
 144         V                 3.950862          6.972448
 145         V                 4.251051          7.657073
 146         V                 4.823384          9.317910
 147         V                 4.913520         11.703433
 148         V                 4.967255          9.772718
 149         V                 5.107360         11.492190
 150         V                 5.670855         11.786461
 151         V                23.735628         60.305523
 152         V                23.864665         60.291994
 153         V                23.886699         60.326712
 154         V                23.934199         60.351809
 155         V                35.566133         89.004074
 156         V                50.012158        123.694822
 Orbital energies and kinetic energies (beta):
                                 1                 2
   1         O               -19.070436         29.130983
   2         O               -14.332334         22.051877
   3         O               -10.263985         15.960611
   4         O               -10.199165         15.958846
   5         O               -10.188482         15.969263
   6         O               -10.170512         15.956379
   7         O                -1.021044          2.456178
   8         O                -0.914115          2.111601
   9         O                -0.768941          1.473255
  10         O                -0.712568          1.483566
  11         O                -0.626625          1.565670
  12         O                -0.573943          1.543742
  13         O                -0.504458          1.285014
  14         O                -0.474161          1.495787
  15         O                -0.448231          1.082601
  16         O                -0.419927          1.728261
  17         O                -0.412585          0.975419
  18         O                -0.395374          1.495765
  19         O                -0.385914          1.390017
  20         O                -0.372323          1.424391
  21         O                -0.368295          1.408338
  22         O                -0.251775          2.365864
  23         O                -0.244870          1.958411
  24         V                -0.096864          1.399409
  25         V                 0.032517          0.702038
  26         V                 0.061125          0.622520
  27         V                 0.066892          0.732780
  28         V                 0.082077          1.767680
  29         V                 0.109273          0.795783
  30         V                 0.112459          0.731325
  31         V                 0.116690          0.757309
  32         V                 0.127507          0.843679
  33         V                 0.147235          0.803055
  34         V                 0.178303          1.494821
  35         V                 0.232922          1.249320
  36         V                 0.256624          1.427089
  37         V                 0.279769          1.325134
  38         V                 0.293243          0.852374
  39         V                 0.298907          0.883423
  40         V                 0.319228          1.284587
  41         V                 0.328929          0.912722
  42         V                 0.370652          1.488118
  43         V                 0.389504          2.052363
  44         V                 0.394944          1.378979
  45         V                 0.433665          1.975824
  46         V                 0.452619          1.374275
  47         V                 0.493335          2.201313
  48         V                 0.519292          1.743925
  49         V                 0.526280          1.744601
  50         V                 0.550324          1.898016
  51         V                 0.564398          1.901502
  52         V                 0.570105          1.767609
  53         V                 0.585081          1.925534
  54         V                 0.592193          1.913301
  55         V                 0.598443          1.647411
  56         V                 0.625390          2.230155
  57         V                 0.636106          2.494246
  58         V                 0.655208          2.258989
  59         V                 0.665372          2.214307
  60         V                 0.674851          1.953944
  61         V                 0.744481          2.046460
  62         V                 0.776731          2.367681
  63         V                 0.827666          2.094310
  64         V                 0.902321          2.215800
  65         V                 0.914230          2.500632
  66         V                 0.926697          2.064677
  67         V                 0.988128          1.859138
  68         V                 1.030328          2.249093
  69         V                 1.032136          1.916655
  70         V                 1.062215          2.374795
  71         V                 1.076068          1.987797
  72         V                 1.167692          2.379710
  73         V                 1.274547          2.287391
  74         V                 1.275102          2.393521
  75         V                 1.301371          2.278719
  76         V                 1.382849          2.213673
  77         V                 1.430345          2.456654
  78         V                 1.443966          2.141227
  79         V                 1.444335          2.328941
  80         V                 1.448875          2.656331
  81         V                 1.453762          2.097493
  82         V                 1.502464          2.404519
  83         V                 1.507532          2.350713
  84         V                 1.512894          2.280021
  85         V                 1.528307          2.438465
  86         V                 1.569839          2.838241
  87         V                 1.612629          2.924991
  88         V                 1.635273          3.571459
  89         V                 1.652796          2.613916
  90         V                 1.659239          2.912476
  91         V                 1.697401          2.860446
  92         V                 1.715547          2.649938
  93         V                 1.739890          3.061106
  94         V                 1.793977          3.059574
  95         V                 1.818347          3.297284
  96         V                 1.866166          2.903531
  97         V                 1.910317          3.313411
  98         V                 1.947132          3.066047
  99         V                 1.975285          3.352967
 100         V                 2.025626          3.246706
 101         V                 2.039188          3.288001
 102         V                 2.039736          3.305024
 103         V                 2.116012          3.776397
 104         V                 2.174164          3.623926
 105         V                 2.216930          3.788133
 106         V                 2.268369          3.534450
 107         V                 2.287874          4.039605
 108         V                 2.322489          3.789127
 109         V                 2.329817          4.203605
 110         V                 2.343858          3.769484
 111         V                 2.362105          4.188713
 112         V                 2.403658          4.142998
 113         V                 2.441115          3.815134
 114         V                 2.467806          3.953642
 115         V                 2.468628          3.775333
 116         V                 2.477951          4.596816
 117         V                 2.506853          4.112797
 118         V                 2.532570          4.933188
 119         V                 2.538952          4.355064
 120         V                 2.630311          4.328277
 121         V                 2.643658          4.520271
 122         V                 2.693617          5.286065
 123         V                 2.698812          4.579825
 124         V                 2.763744          4.684864
 125         V                 2.837629          4.469553
 126         V                 2.848709          4.722658
 127         V                 2.867872          5.732091
 128         V                 2.899364          4.682819
 129         V                 2.953371          4.960084
 130         V                 2.958445          4.966629
 131         V                 3.093562          6.612786
 132         V                 3.179670          5.333204
 133         V                 3.281632          6.691397
 134         V                 3.322617          6.946649
 135         V                 3.346713          5.152610
 136         V                 3.557739          5.774751
 137         V                 3.590362          6.638357
 138         V                 3.689907          7.046575
 139         V                 3.739487          6.679640
 140         V                 3.758245          6.315451
 141         V                 3.838399          6.435675
 142         V                 3.853980          6.524050
 143         V                 3.862066          8.073359
 144         V                 3.963275          6.976318
 145         V                 4.261996          7.661217
 146         V                 4.825155          9.317268
 147         V                 4.927188         11.714576
 148         V                 4.969882          9.767786
 149         V                 5.110029         11.489641
 150         V                 5.673161         11.788517
 151         V                23.740869         60.300767
 152         V                23.870160         60.293776
 153         V                23.888682         60.317347
 154         V                23.933808         60.352324
 155         V                35.567821         89.002694
 156         V                50.015330        123.692256
 Total kinetic energy from orbitals= 2.860997490789D+02
                          Isotropic Fermi Contact Couplings
        Atom                 a.u.       MegaHertz       Gauss      10(-4) cm-1
     1  C(13)             -0.00337      -3.78545      -1.35074      -1.26269
     2  N(14)              0.00529       1.70960       0.61003       0.57026
     3  C(13)             -0.03320     -37.32719     -13.31927     -12.45101
     4  C(13)              0.05558      62.48033      22.29454      20.84120
     5  C(13)             -0.02660     -29.90389     -10.67045      -9.97486
     6  O(17)              0.00888      -5.38054      -1.91991      -1.79475
     7  H(1)               0.00265      11.82758       4.22037       3.94525
     8  H(1)               0.00009       0.41547       0.14825       0.13858
     9  H(1)               0.00271      12.11645       4.32345       4.04161
    10  H(1)              -0.00115      -5.13240      -1.83137      -1.71198
    11  H(1)              -0.01180     -52.74047     -18.81911     -17.59233
    12  H(1)               0.02194      98.06331      34.99143      32.71040
    13  H(1)               0.00048       2.15928       0.77048       0.72026
    14  H(1)               0.02190      97.90111      34.93355      32.65629
 --------------------------------------------------------
       Center         ----  Spin Dipole Couplings  ----
                      3XX-RR        3YY-RR        3ZZ-RR
 --------------------------------------------------------
     1   Atom        0.004749     -0.003849     -0.000900
     2   Atom       -0.085969     -0.102295      0.188265
     3   Atom        0.025084      0.022471     -0.047554
     4   Atom       -0.511142     -0.505696      1.016838
     5   Atom        0.003589     -0.015425      0.011836
     6   Atom       -0.257568     -0.239840      0.497408
     7   Atom        0.003774     -0.002028     -0.001747
     8   Atom        0.004317     -0.001033     -0.003284
     9   Atom        0.003759     -0.002039     -0.001720
    10   Atom        0.001831      0.006395     -0.008227
    11   Atom       -0.062978      0.067066     -0.004088
    12   Atom        0.011444     -0.006485     -0.004959
    13   Atom        0.001161      0.006065     -0.007226
    14   Atom        0.011456     -0.006483     -0.004972
 --------------------------------------------------------
                        XY            XZ            YZ
 --------------------------------------------------------
     1   Atom        0.000898      0.000010     -0.000021
     2   Atom        0.001916     -0.000085      0.000051
     3   Atom        0.015811      0.000004     -0.000029
     4   Atom        0.000712     -0.000117      0.000492
     5   Atom       -0.011309     -0.000005      0.000005
     6   Atom        0.000610     -0.000978     -0.000069
     7   Atom        0.000222     -0.001687      0.000089
     8   Atom        0.002611     -0.000032     -0.000006
     9   Atom        0.000258      0.001707     -0.000076
    10   Atom       -0.004817      0.000000     -0.000002
    11   Atom       -0.003504     -0.000003     -0.000030
    12   Atom       -0.002825     -0.007925     -0.000561
    13   Atom       -0.010011      0.000006     -0.000004
    14   Atom       -0.002810      0.007922      0.000564
 --------------------------------------------------------


 ---------------------------------------------------------------------------------
              Anisotropic Spin Dipole Couplings in Principal Axis System
 ---------------------------------------------------------------------------------

       Atom             a.u.   MegaHertz   Gauss  10(-4) cm-1        Axes

              Baa    -0.0039    -0.529    -0.189    -0.176 -0.1028  0.9947  0.0071
     1 C(13)  Bbb    -0.0009    -0.121    -0.043    -0.040 -0.0006 -0.0072  1.0000
              Bcc     0.0048     0.650     0.232     0.217  0.9947  0.1028  0.0014
 
              Baa    -0.1025    -3.954    -1.411    -1.319 -0.1150  0.9934 -0.0002
     2 N(14)  Bbb    -0.0857    -3.307    -1.180    -1.103  0.9934  0.1150  0.0003
              Bcc     0.1883     7.261     2.591     2.422 -0.0003  0.0002  1.0000
 
              Baa    -0.0476    -6.381    -2.277    -2.129 -0.0002  0.0004  1.0000
     3 C(13)  Bbb     0.0079     1.062     0.379     0.354 -0.6774  0.7357 -0.0004
              Bcc     0.0396     5.320     1.898     1.774  0.7357  0.6774 -0.0002
 
              Baa    -0.5112   -68.603   -24.479   -22.883  0.9918 -0.1275  0.0001
     4 C(13)  Bbb    -0.5056   -67.847   -24.210   -22.631  0.1275  0.9918 -0.0003
              Bcc     1.0168   136.450    48.689    45.515 -0.0001  0.0003  1.0000
 
              Baa    -0.0207    -2.777    -0.991    -0.926  0.4222  0.9065 -0.0001
     5 C(13)  Bbb     0.0089     1.188     0.424     0.396  0.9065 -0.4222  0.0021
              Bcc     0.0118     1.588     0.567     0.530 -0.0019  0.0010  1.0000
 
              Baa    -0.2576    18.639     6.651     6.217  0.9994 -0.0344  0.0013
     6 O(17)  Bbb    -0.2398    17.353     6.192     5.788  0.0344  0.9994  0.0001
              Bcc     0.4974   -35.992   -12.843   -12.006 -0.0013 -0.0001  1.0000
 
              Baa    -0.0023    -1.228    -0.438    -0.410  0.2512 -0.4782  0.8416
     7 H(1)   Bbb    -0.0020    -1.043    -0.372    -0.348  0.1038  0.8777  0.4678
              Bcc     0.0043     2.270     0.810     0.757  0.9624  0.0302 -0.2701
 
              Baa    -0.0033    -1.752    -0.625    -0.585  0.0054 -0.0034  1.0000
     8 H(1)   Bbb    -0.0021    -1.118    -0.399    -0.373 -0.3771  0.9262  0.0052
              Bcc     0.0054     2.871     1.024     0.958  0.9262  0.3771 -0.0037
 
              Baa    -0.0023    -1.223    -0.437    -0.408 -0.2542  0.5049  0.8249
     9 H(1)   Bbb    -0.0020    -1.047    -0.374    -0.349  0.1086  0.8624 -0.4944
              Bcc     0.0043     2.271     0.810     0.757  0.9610  0.0361  0.2741
 
              Baa    -0.0082    -4.389    -1.566    -1.464  0.0001  0.0002  1.0000
    10 H(1)   Bbb    -0.0012    -0.649    -0.232    -0.217  0.8450  0.5347 -0.0001
              Bcc     0.0094     5.038     1.798     1.681 -0.5347  0.8450 -0.0001
 
              Baa    -0.0631   -33.652   -12.008   -11.225  0.9996  0.0269  0.0001
    11 H(1)   Bbb    -0.0041    -2.181    -0.778    -0.728 -0.0001  0.0004  1.0000
              Bcc     0.0672    35.833    12.786    11.953 -0.0269  0.9996 -0.0004
 
              Baa    -0.0092    -4.897    -1.748    -1.634  0.3653  0.5408  0.7577
    12 H(1)   Bbb    -0.0057    -3.063    -1.093    -1.022 -0.1123  0.8336 -0.5408
              Bcc     0.0149     7.960     2.841     2.655  0.9241 -0.1124 -0.3652
 
              Baa    -0.0072    -3.856    -1.376    -1.286 -0.0038 -0.0025  1.0000
    13 H(1)   Bbb    -0.0067    -3.571    -1.274    -1.191  0.7867  0.6173  0.0045
              Bcc     0.0139     7.427     2.650     2.477 -0.6173  0.7867 -0.0003
 
              Baa    -0.0092    -4.898    -1.748    -1.634 -0.3648 -0.5390  0.7592
    14 H(1)   Bbb    -0.0057    -3.064    -1.093    -1.022 -0.1119  0.8349  0.5389
              Bcc     0.0149     7.962     2.841     2.656  0.9243 -0.1117  0.3649
 

 ---------------------------------------------------------------------------------


 Test job not archived.
 1\1\GINC-KADET27\SP\UB3LYP\6-311G(d,p)\C4H8N1O1(2)\MDOROHUN\15-Apr-202
 6\0\\# UB3LYP/6-311G(d,p) GFInput Pop=Full IOP(6/80=1)\\ch3ch_conh_ch3
  rodnik\\0,2\C,0,4.543989,-2.90134,4.995933\N,0,3.452463,-3.556686,4.3
 05398\C,0,2.81444,-2.99249,3.220962\C,0,1.735074,-3.795804,2.649225\C,
 0,0.959336,-3.315221,1.478001\O,0,3.134108,-1.888028,2.767469\H,0,5.46
 0195,-3.504531,4.96198\H,0,4.723173,-1.952741,4.487809\H,0,4.294434,-2
 .702784,6.046171\H,0,3.146484,-4.462068,4.630397\H,0,1.495201,-4.76265
 3,3.089383\H,0,-0.11313,-3.235164,1.711511\H,0,1.327693,-2.335505,1.16
 4935\H,0,1.036767,-4.013134,0.630682\\Version=ES64L-G09RevD.01\State=2
 -A\HF=-287.2668227\S2=0.755307\S2-1=0.\S2A=0.750021\RMSD=7.762e-09\Dip
 ole=-0.2240153,-1.2368047,0.6496495\Quadrupole=0.8538558,-1.8782446,1.
 0243888,0.0328721,2.6592338,0.1823018\PG=C01 [X(C4H8N1O1)]\\@


 IF NO USE IS MADE OF THE LABOR OF PAST AGES,
 THE WORLD MUST REMAIN ALWAYS IN THE INFANCY OF KNOWLEDGE.

                          -- CICERO
 Job cpu time:       0 days  0 hours  0 minutes 20.6 seconds.
 File lengths (MBytes):  RWF=     25 Int=      0 D2E=      0 Chk=      2 Scr=      1
 Normal termination of Gaussian 09 at Wed Apr 15 13:19:23 2026.
