 Entering Gaussian System, Link 0=/opt/g09/g09/g09
 Input=ch3ch2_nhco_ch3.inp
 Output=ch3ch2_nhco_ch3.log
 Initial command:
 /opt/g09/g09/l1.exe "/tmp/Gau-5552.inp" -scrdir="/tmp/"
 Entering Link 1 = /opt/g09/g09/l1.exe PID=      5554.
  
 Copyright (c) 1988,1990,1992,1993,1995,1998,2003,2009,2013,
            Gaussian, Inc.  All Rights Reserved.
  
 This is part of the Gaussian(R) 09 program.  It is based on
 the Gaussian(R) 03 system (copyright 2003, Gaussian, Inc.),
 the Gaussian(R) 98 system (copyright 1998, Gaussian, Inc.),
 the Gaussian(R) 94 system (copyright 1995, Gaussian, Inc.),
 the Gaussian 92(TM) system (copyright 1992, Gaussian, Inc.),
 the Gaussian 90(TM) system (copyright 1990, Gaussian, Inc.),
 the Gaussian 88(TM) system (copyright 1988, Gaussian, Inc.),
 the Gaussian 86(TM) system (copyright 1986, Carnegie Mellon
 University), and the Gaussian 82(TM) system (copyright 1983,
 Carnegie Mellon University). Gaussian is a federally registered
 trademark of Gaussian, Inc.
  
 This software contains proprietary and confidential information,
 including trade secrets, belonging to Gaussian, Inc.
  
 This software is provided under written license and may be
 used, copied, transmitted, or stored only in accord with that
 written license.
  
 The following legend is applicable only to US Government
 contracts under FAR:
  
                    RESTRICTED RIGHTS LEGEND
  
 Use, reproduction and disclosure by the US Government is
 subject to restrictions as set forth in subparagraphs (a)
 and (c) of the Commercial Computer Software - Restricted
 Rights clause in FAR 52.227-19.
  
 Gaussian, Inc.
 340 Quinnipiac St., Bldg. 40, Wallingford CT 06492
  
  
 ---------------------------------------------------------------
 Warning -- This program may not be used in any manner that
 competes with the business of Gaussian, Inc. or will provide
 assistance to any competitor of Gaussian, Inc.  The licensee
 of this program is prohibited from giving any competitor of
 Gaussian, Inc. access to this program.  By using this program,
 the user acknowledges that Gaussian, Inc. is engaged in the
 business of creating and licensing software in the field of
 computational chemistry and represents and warrants to the
 licensee that it is not a competitor of Gaussian, Inc. and that
 it will not use this program in any manner prohibited above.
 ---------------------------------------------------------------
  

 Cite this work as:
 Gaussian 09, Revision D.01,
 M. J. Frisch, G. W. Trucks, H. B. Schlegel, G. E. Scuseria, 
 M. A. Robb, J. R. Cheeseman, G. Scalmani, V. Barone, B. Mennucci, 
 G. A. Petersson, H. Nakatsuji, M. Caricato, X. Li, H. P. Hratchian, 
 A. F. Izmaylov, J. Bloino, G. Zheng, J. L. Sonnenberg, M. Hada, 
 M. Ehara, K. Toyota, R. Fukuda, J. Hasegawa, M. Ishida, T. Nakajima, 
 Y. Honda, O. Kitao, H. Nakai, T. Vreven, J. A. Montgomery, Jr., 
 J. E. Peralta, F. Ogliaro, M. Bearpark, J. J. Heyd, E. Brothers, 
 K. N. Kudin, V. N. Staroverov, T. Keith, R. Kobayashi, J. Normand, 
 K. Raghavachari, A. Rendell, J. C. Burant, S. S. Iyengar, J. Tomasi, 
 M. Cossi, N. Rega, J. M. Millam, M. Klene, J. E. Knox, J. B. Cross, 
 V. Bakken, C. Adamo, J. Jaramillo, R. Gomperts, R. E. Stratmann, 
 O. Yazyev, A. J. Austin, R. Cammi, C. Pomelli, J. W. Ochterski, 
 R. L. Martin, K. Morokuma, V. G. Zakrzewski, G. A. Voth, 
 P. Salvador, J. J. Dannenberg, S. Dapprich, A. D. Daniels, 
 O. Farkas, J. B. Foresman, J. V. Ortiz, J. Cioslowski, 
 and D. J. Fox, Gaussian, Inc., Wallingford CT, 2013.
 
 ******************************************
 Gaussian 09:  ES64L-G09RevD.01 24-Apr-2013
                15-Apr-2026 
 ******************************************
 ------------------------------------------------
 # B3LYP/6-311G(d,p) GFInput Pop=Full IOP(6/80=1)
 ------------------------------------------------
 1/38=1/1;
 2/12=2,17=6,18=5,40=1/2;
 3/5=4,6=6,7=101,11=2,16=1,24=10,25=1,30=1,74=-5/1,2,3;
 4//1;
 5/5=2,38=5/2;
 6/7=3,28=1,80=1/1;
 99/5=1,9=1/99;
 ------------------------------------------------
 ch3ch2_nhco_ch3 zamkniętopowłokowa cząsteczka
 ------------------------------------------------
 Symbolic Z-matrix:
 Charge =  0 Multiplicity = 1
 C                     4.56998  -2.99803   4.89004 
 C                     3.30905  -3.75788   4.49975 
 O                     3.24407  -4.41111   3.46545 
 N                     2.26073  -3.64556   5.37343 
 C                     1.00997  -4.37005   5.18751 
 C                     0.94244  -5.67601   5.98464 
 H                     4.47529  -2.42392   5.81752 
 H                     5.39341  -3.71128   4.99672 
 H                     4.83425  -2.31606   4.07628 
 H                     2.4082   -3.16191   6.24768 
 H                     0.93379  -4.57592   4.11749 
 H                     0.18071  -3.70744   5.46385 
 H                    -0.01752  -6.17821   5.81686 
 H                     1.74384  -6.35406   5.67438 
 H                     1.04322  -5.49407   7.06156 
 
                          Input orientation:                          
 ---------------------------------------------------------------------
 Center     Atomic      Atomic             Coordinates (Angstroms)
 Number     Number       Type             X           Y           Z
 ---------------------------------------------------------------------
      1          6           0        4.569980   -2.998032    4.890038
      2          6           0        3.309051   -3.757882    4.499750
      3          8           0        3.244069   -4.411106    3.465452
      4          7           0        2.260729   -3.645557    5.373429
      5          6           0        1.009968   -4.370050    5.187511
      6          6           0        0.942438   -5.676009    5.984637
      7          1           0        4.475289   -2.423919    5.817517
      8          1           0        5.393414   -3.711280    4.996722
      9          1           0        4.834253   -2.316063    4.076283
     10          1           0        2.408196   -3.161910    6.247676
     11          1           0        0.933785   -4.575924    4.117488
     12          1           0        0.180714   -3.707435    5.463847
     13          1           0       -0.017519   -6.178215    5.816863
     14          1           0        1.743839   -6.354056    5.674380
     15          1           0        1.043215   -5.494066    7.061563
 ---------------------------------------------------------------------
                    Distance matrix (angstroms):
                    1          2          3          4          5
     1  C    0.000000
     2  C    1.523036   0.000000
     3  O    2.405050   1.225029   0.000000
     4  N    2.446548   1.369274   2.278903   0.000000
     5  C    3.826828   2.476600   2.821060   1.457346   0.000000
     6  C    4.639910   3.388946   3.639200   2.496838   1.531502
     7  H    1.094892   2.208184   3.316176   2.567857   4.024026
     8  H    1.094599   2.143297   2.730243   3.155938   4.436776
     9  H    1.094129   2.141123   2.700186   3.173825   4.480943
    10  H    2.557997   2.054743   3.162269   1.009935   2.130398
    11  H    4.038377   2.541103   2.406185   2.050305   1.092308
    12  H    4.483098   3.273915   3.724631   2.082899   1.096851
    13  H    5.658420   4.319591   4.392011   3.435317   2.172849
    14  H    4.457035   3.251117   3.302288   2.773754   2.170688
    15  H    4.835678   3.835523   4.352996   2.783725   2.185541
                    6          7          8          9         10
     6  C    0.000000
     7  H    4.804691   0.000000
     8  H    4.964607   1.781560   0.000000
     9  H    5.484275   1.781119   1.762526   0.000000
    10  H    2.922042   2.236636   3.283020   3.363950   0.000000
    11  H    2.167143   4.479227   4.626981   4.508028   2.951444
    12  H    2.174104   4.496206   5.233590   5.051403   2.423564
    13  H    1.096301   5.854918   6.003049   6.440926   3.894585
    14  H    1.094646   4.788244   4.556631   5.330099   3.310564
    15  H    1.096827   4.769967   5.134796   5.777852   2.822151
                   11         12         13         14         15
    11  H    0.000000
    12  H    1.770331   0.000000
    13  H    2.521942   2.503731   0.000000
    14  H    2.498370   3.080955   1.775839   0.000000
    15  H    3.085861   2.547284   1.772708   1.776157   0.000000
 Stoichiometry    C4H9NO
 Framework group  C1[X(C4H9NO)]
 Deg. of freedom    39
 Full point group                 C1      NOp   1
 Largest Abelian subgroup         C1      NOp   1
 Largest concise Abelian subgroup C1      NOp   1
                         Standard orientation:                         
 ---------------------------------------------------------------------
 Center     Atomic      Atomic             Coordinates (Angstroms)
 Number     Number       Type             X           Y           Z
 ---------------------------------------------------------------------
      1          6           0       -2.247385   -0.603326    0.260050
      2          6           0       -0.967753    0.167063   -0.037741
      3          8           0       -0.926625    1.390592    0.006780
      4          7           0        0.116721   -0.600159   -0.369700
      5          6           0        1.434370   -0.025355   -0.608994
      6          6           0        2.348208   -0.073782    0.619034
      7          1           0       -2.152187   -1.687789    0.143141
      8          1           0       -2.561768   -0.383184    1.285159
      9          1           0       -3.036705   -0.242774   -0.406355
     10          1           0        0.037463   -1.604918   -0.305307
     11          1           0        1.264054    1.009919   -0.912863
     12          1           0        1.895389   -0.553473   -1.452579
     13          1           0        3.326530    0.362735    0.386189
     14          1           0        1.907021    0.492692    1.445298
     15          1           0        2.511512   -1.104422    0.956882
 ---------------------------------------------------------------------
 Rotational constants (GHZ):      7.3293876      2.0756119      1.8531096
 Standard basis: 6-311G(d,p) (5D, 7F)
 AO basis set in the form of general basis input (Overlap normalization):
      1 0
 S   6 1.00       0.000000000000
      0.4563240000D+04  0.1966650249D-02
      0.6820240000D+03  0.1523060193D-01
      0.1549730000D+03  0.7612690966D-01
      0.4445530000D+02  0.2608010331D+00
      0.1302900000D+02  0.6164620782D+00
      0.1827730000D+01  0.2210060280D+00
 SP   3 1.00       0.000000000000
      0.2096420000D+02  0.1146600807D+00  0.4024869267D-01
      0.4803310000D+01  0.9199996477D+00  0.2375939567D+00
      0.1459330000D+01 -0.3030682134D-02  0.8158538515D+00
 SP   1 1.00       0.000000000000
      0.4834560000D+00  0.1000000000D+01  0.1000000000D+01
 SP   1 1.00       0.000000000000
      0.1455850000D+00  0.1000000000D+01  0.1000000000D+01
 D   1 1.00       0.000000000000
      0.6260000000D+00  0.1000000000D+01
 ****
      2 0
 S   6 1.00       0.000000000000
      0.4563240000D+04  0.1966650249D-02
      0.6820240000D+03  0.1523060193D-01
      0.1549730000D+03  0.7612690966D-01
      0.4445530000D+02  0.2608010331D+00
      0.1302900000D+02  0.6164620782D+00
      0.1827730000D+01  0.2210060280D+00
 SP   3 1.00       0.000000000000
      0.2096420000D+02  0.1146600807D+00  0.4024869267D-01
      0.4803310000D+01  0.9199996477D+00  0.2375939567D+00
      0.1459330000D+01 -0.3030682134D-02  0.8158538515D+00
 SP   1 1.00       0.000000000000
      0.4834560000D+00  0.1000000000D+01  0.1000000000D+01
 SP   1 1.00       0.000000000000
      0.1455850000D+00  0.1000000000D+01  0.1000000000D+01
 D   1 1.00       0.000000000000
      0.6260000000D+00  0.1000000000D+01
 ****
      3 0
 S   6 1.00       0.000000000000
      0.8588500000D+04  0.1895150083D-02
      0.1297230000D+04  0.1438590063D-01
      0.2992960000D+03  0.7073200310D-01
      0.8737710000D+02  0.2400010105D+00
      0.2567890000D+02  0.5947970261D+00
      0.3740040000D+01  0.2808020123D+00
 SP   3 1.00       0.000000000000
      0.4211750000D+02  0.1138890124D+00  0.3651139738D-01
      0.9628370000D+01  0.9208111006D+00  0.2371529830D+00
      0.2853320000D+01 -0.3274470358D-02  0.8197019412D+00
 SP   1 1.00       0.000000000000
      0.9056610000D+00  0.1000000000D+01  0.1000000000D+01
 SP   1 1.00       0.000000000000
      0.2556110000D+00  0.1000000000D+01  0.1000000000D+01
 D   1 1.00       0.000000000000
      0.1292000000D+01  0.1000000000D+01
 ****
      4 0
 S   6 1.00       0.000000000000
      0.6293480000D+04  0.1969788147D-02
      0.9490440000D+03  0.1496128592D-01
      0.2187760000D+03  0.7350053084D-01
      0.6369160000D+02  0.2489367658D+00
      0.1882820000D+02  0.6024594331D+00
      0.2720230000D+01  0.2562017589D+00
 SP   3 1.00       0.000000000000
      0.3063310000D+02  0.1119060795D+00  0.3831191864D-01
      0.7026140000D+01  0.9216666549D+00  0.2374031155D+00
      0.2112050000D+01 -0.2569191826D-02  0.8175923978D+00
 SP   1 1.00       0.000000000000
      0.6840090000D+00  0.1000000000D+01  0.1000000000D+01
 SP   1 1.00       0.000000000000
      0.2008780000D+00  0.1000000000D+01  0.1000000000D+01
 D   1 1.00       0.000000000000
      0.9130000000D+00  0.1000000000D+01
 ****
      5 0
 S   6 1.00       0.000000000000
      0.4563240000D+04  0.1966650249D-02
      0.6820240000D+03  0.1523060193D-01
      0.1549730000D+03  0.7612690966D-01
      0.4445530000D+02  0.2608010331D+00
      0.1302900000D+02  0.6164620782D+00
      0.1827730000D+01  0.2210060280D+00
 SP   3 1.00       0.000000000000
      0.2096420000D+02  0.1146600807D+00  0.4024869267D-01
      0.4803310000D+01  0.9199996477D+00  0.2375939567D+00
      0.1459330000D+01 -0.3030682134D-02  0.8158538515D+00
 SP   1 1.00       0.000000000000
      0.4834560000D+00  0.1000000000D+01  0.1000000000D+01
 SP   1 1.00       0.000000000000
      0.1455850000D+00  0.1000000000D+01  0.1000000000D+01
 D   1 1.00       0.000000000000
      0.6260000000D+00  0.1000000000D+01
 ****
      6 0
 S   6 1.00       0.000000000000
      0.4563240000D+04  0.1966650249D-02
      0.6820240000D+03  0.1523060193D-01
      0.1549730000D+03  0.7612690966D-01
      0.4445530000D+02  0.2608010331D+00
      0.1302900000D+02  0.6164620782D+00
      0.1827730000D+01  0.2210060280D+00
 SP   3 1.00       0.000000000000
      0.2096420000D+02  0.1146600807D+00  0.4024869267D-01
      0.4803310000D+01  0.9199996477D+00  0.2375939567D+00
      0.1459330000D+01 -0.3030682134D-02  0.8158538515D+00
 SP   1 1.00       0.000000000000
      0.4834560000D+00  0.1000000000D+01  0.1000000000D+01
 SP   1 1.00       0.000000000000
      0.1455850000D+00  0.1000000000D+01  0.1000000000D+01
 D   1 1.00       0.000000000000
      0.6260000000D+00  0.1000000000D+01
 ****
      7 0
 S   3 1.00       0.000000000000
      0.3386500000D+02  0.2549381454D-01
      0.5094790000D+01  0.1903731086D+00
      0.1158790000D+01  0.8521614860D+00
 S   1 1.00       0.000000000000
      0.3258400000D+00  0.1000000000D+01
 S   1 1.00       0.000000000000
      0.1027410000D+00  0.1000000000D+01
 P   1 1.00       0.000000000000
      0.7500000000D+00  0.1000000000D+01
 ****
      8 0
 S   3 1.00       0.000000000000
      0.3386500000D+02  0.2549381454D-01
      0.5094790000D+01  0.1903731086D+00
      0.1158790000D+01  0.8521614860D+00
 S   1 1.00       0.000000000000
      0.3258400000D+00  0.1000000000D+01
 S   1 1.00       0.000000000000
      0.1027410000D+00  0.1000000000D+01
 P   1 1.00       0.000000000000
      0.7500000000D+00  0.1000000000D+01
 ****
      9 0
 S   3 1.00       0.000000000000
      0.3386500000D+02  0.2549381454D-01
      0.5094790000D+01  0.1903731086D+00
      0.1158790000D+01  0.8521614860D+00
 S   1 1.00       0.000000000000
      0.3258400000D+00  0.1000000000D+01
 S   1 1.00       0.000000000000
      0.1027410000D+00  0.1000000000D+01
 P   1 1.00       0.000000000000
      0.7500000000D+00  0.1000000000D+01
 ****
     10 0
 S   3 1.00       0.000000000000
      0.3386500000D+02  0.2549381454D-01
      0.5094790000D+01  0.1903731086D+00
      0.1158790000D+01  0.8521614860D+00
 S   1 1.00       0.000000000000
      0.3258400000D+00  0.1000000000D+01
 S   1 1.00       0.000000000000
      0.1027410000D+00  0.1000000000D+01
 P   1 1.00       0.000000000000
      0.7500000000D+00  0.1000000000D+01
 ****
     11 0
 S   3 1.00       0.000000000000
      0.3386500000D+02  0.2549381454D-01
      0.5094790000D+01  0.1903731086D+00
      0.1158790000D+01  0.8521614860D+00
 S   1 1.00       0.000000000000
      0.3258400000D+00  0.1000000000D+01
 S   1 1.00       0.000000000000
      0.1027410000D+00  0.1000000000D+01
 P   1 1.00       0.000000000000
      0.7500000000D+00  0.1000000000D+01
 ****
     12 0
 S   3 1.00       0.000000000000
      0.3386500000D+02  0.2549381454D-01
      0.5094790000D+01  0.1903731086D+00
      0.1158790000D+01  0.8521614860D+00
 S   1 1.00       0.000000000000
      0.3258400000D+00  0.1000000000D+01
 S   1 1.00       0.000000000000
      0.1027410000D+00  0.1000000000D+01
 P   1 1.00       0.000000000000
      0.7500000000D+00  0.1000000000D+01
 ****
     13 0
 S   3 1.00       0.000000000000
      0.3386500000D+02  0.2549381454D-01
      0.5094790000D+01  0.1903731086D+00
      0.1158790000D+01  0.8521614860D+00
 S   1 1.00       0.000000000000
      0.3258400000D+00  0.1000000000D+01
 S   1 1.00       0.000000000000
      0.1027410000D+00  0.1000000000D+01
 P   1 1.00       0.000000000000
      0.7500000000D+00  0.1000000000D+01
 ****
     14 0
 S   3 1.00       0.000000000000
      0.3386500000D+02  0.2549381454D-01
      0.5094790000D+01  0.1903731086D+00
      0.1158790000D+01  0.8521614860D+00
 S   1 1.00       0.000000000000
      0.3258400000D+00  0.1000000000D+01
 S   1 1.00       0.000000000000
      0.1027410000D+00  0.1000000000D+01
 P   1 1.00       0.000000000000
      0.7500000000D+00  0.1000000000D+01
 ****
     15 0
 S   3 1.00       0.000000000000
      0.3386500000D+02  0.2549381454D-01
      0.5094790000D+01  0.1903731086D+00
      0.1158790000D+01  0.8521614860D+00
 S   1 1.00       0.000000000000
      0.3258400000D+00  0.1000000000D+01
 S   1 1.00       0.000000000000
      0.1027410000D+00  0.1000000000D+01
 P   1 1.00       0.000000000000
      0.7500000000D+00  0.1000000000D+01
 ****

 There are   168 symmetry adapted cartesian basis functions of A   symmetry.
 There are   162 symmetry adapted basis functions of A   symmetry.
   162 basis functions,   264 primitive gaussians,   168 cartesian basis functions
    24 alpha electrons       24 beta electrons
       nuclear repulsion energy       242.5367209213 Hartrees.
 NAtoms=   15 NActive=   15 NUniq=   15 SFac= 1.00D+00 NAtFMM=   60 NAOKFM=F Big=F
 Integral buffers will be    131072 words long.
 Raffenetti 2 integral format.
 Two-electron integral symmetry is turned on.
 One-electron integrals computed using PRISM.
 NBasis=   162 RedAO= T EigKep=  2.33D-03  NBF=   162
 NBsUse=   162 1.00D-06 EigRej= -1.00D+00 NBFU=   162
 ExpMin= 1.03D-01 ExpMax= 8.59D+03 ExpMxC= 1.30D+03 IAcc=1 IRadAn=         1 AccDes= 0.00D+00
 Harris functional with IExCor=  402 and IRadAn=       1 diagonalized for initial guess.
 HarFok:  IExCor=  402 AccDes= 0.00D+00 IRadAn=         1 IDoV= 1 UseB2=F ITyADJ=14
 ICtDFT=  3500011 ScaDFX=  1.000000  1.000000  1.000000  1.000000
 FoFCou: FMM=F IPFlag=           0 FMFlag=      100000 FMFlg1=           0
         NFxFlg=           0 DoJE=T BraDBF=F KetDBF=T FulRan=T
         wScrn=  0.000000 ICntrl=     500 IOpCl=  0 I1Cent=   200000004 NGrid=           0
         NMat0=    1 NMatS0=      1 NMatT0=    0 NMatD0=    1 NMtDS0=    0 NMtDT0=    0
 Petite list used in FoFCou.
 Requested convergence on RMS density matrix=1.00D-08 within 128 cycles.
 Requested convergence on MAX density matrix=1.00D-06.
 Requested convergence on             energy=1.00D-06.
 No special actions if energy rises.
 Integral accuracy reduced to 1.0D-05 until final iterations.
 Initial convergence to 1.0D-05 achieved.  Increase integral accuracy.
 SCF Done:  E(RB3LYP) =  -287.925925341     A.U. after   14 cycles
            NFock= 14  Conv=0.77D-08     -V/T= 2.0042

 **********************************************************************

            Population analysis using the SCF density.

 **********************************************************************

 Orbital symmetries:
       Occupied  (A) (A) (A) (A) (A) (A) (A) (A) (A) (A) (A) (A)
                 (A) (A) (A) (A) (A) (A) (A) (A) (A) (A) (A) (A)
       Virtual   (A) (A) (A) (A) (A) (A) (A) (A) (A) (A) (A) (A)
                 (A) (A) (A) (A) (A) (A) (A) (A) (A) (A) (A) (A)
                 (A) (A) (A) (A) (A) (A) (A) (A) (A) (A) (A) (A)
                 (A) (A) (A) (A) (A) (A) (A) (A) (A) (A) (A) (A)
                 (A) (A) (A) (A) (A) (A) (A) (A) (A) (A) (A) (A)
                 (A) (A) (A) (A) (A) (A) (A) (A) (A) (A) (A) (A)
                 (A) (A) (A) (A) (A) (A) (A) (A) (A) (A) (A) (A)
                 (A) (A) (A) (A) (A) (A) (A) (A) (A) (A) (A) (A)
                 (A) (A) (A) (A) (A) (A) (A) (A) (A) (A) (A) (A)
                 (A) (A) (A) (A) (A) (A) (A) (A) (A) (A) (A) (A)
                 (A) (A) (A) (A) (A) (A) (A) (A) (A) (A) (A) (A)
                 (A) (A) (A) (A) (A) (A)
 The electronic state is 1-A.
 Alpha  occ. eigenvalues --  -19.07289 -14.33442 -10.26784 -10.20632 -10.17611
 Alpha  occ. eigenvalues --  -10.16662  -1.02893  -0.92095  -0.76956  -0.72573
 Alpha  occ. eigenvalues --   -0.63661  -0.58468  -0.50589  -0.47243  -0.45221
 Alpha  occ. eigenvalues --   -0.43789  -0.41941  -0.40064  -0.39848  -0.37597
 Alpha  occ. eigenvalues --   -0.35582  -0.35150  -0.25670  -0.24935
 Alpha virt. eigenvalues --    0.02200   0.02944   0.05833   0.07352   0.08754
 Alpha virt. eigenvalues --    0.10617   0.11763   0.12482   0.12855   0.13665
 Alpha virt. eigenvalues --    0.18009   0.20598   0.22869   0.27179   0.28812
 Alpha virt. eigenvalues --    0.29581   0.30346   0.31817   0.34301   0.35638
 Alpha virt. eigenvalues --    0.40586   0.41930   0.43058   0.48099   0.50938
 Alpha virt. eigenvalues --    0.52953   0.54911   0.56182   0.56581   0.57332
 Alpha virt. eigenvalues --    0.57988   0.58828   0.59410   0.60757   0.62003
 Alpha virt. eigenvalues --    0.65048   0.67970   0.70886   0.71504   0.74776
 Alpha virt. eigenvalues --    0.79651   0.84798   0.89748   0.94459   0.98187
 Alpha virt. eigenvalues --    1.00264   1.02747   1.03123   1.12466   1.22407
 Alpha virt. eigenvalues --    1.25117   1.26883   1.30732   1.32589   1.41069
 Alpha virt. eigenvalues --    1.43985   1.45180   1.46009   1.46565   1.47323
 Alpha virt. eigenvalues --    1.49207   1.49404   1.50083   1.53701   1.56916
 Alpha virt. eigenvalues --    1.59793   1.62425   1.66067   1.67010   1.69574
 Alpha virt. eigenvalues --    1.72289   1.74937   1.77474   1.80080   1.80827
 Alpha virt. eigenvalues --    1.87555   1.88821   1.91906   1.98940   2.01165
 Alpha virt. eigenvalues --    2.04808   2.09773   2.11366   2.17440   2.23730
 Alpha virt. eigenvalues --    2.24832   2.28995   2.34639   2.36046   2.36771
 Alpha virt. eigenvalues --    2.39455   2.43125   2.44264   2.46286   2.47015
 Alpha virt. eigenvalues --    2.48221   2.48828   2.51315   2.52214   2.55799
 Alpha virt. eigenvalues --    2.57972   2.63330   2.65221   2.70701   2.74780
 Alpha virt. eigenvalues --    2.79241   2.82251   2.84243   2.87845   2.92620
 Alpha virt. eigenvalues --    2.93755   3.05365   3.15203   3.16864   3.34810
 Alpha virt. eigenvalues --    3.35599   3.51394   3.58342   3.74652   3.76834
 Alpha virt. eigenvalues --    3.77911   3.78797   3.79465   3.81895   3.86532
 Alpha virt. eigenvalues --    4.11279   4.19883   4.82208   4.92997   4.94197
 Alpha virt. eigenvalues --    5.08493   5.65820  23.79464  23.82325  23.90801
 Alpha virt. eigenvalues --   23.91466  35.56988  50.00409
     Molecular Orbital Coefficients:
                           1         2         3         4         5
                           O         O         O         O         O
     Eigenvalues --   -19.07289 -14.33442 -10.26784 -10.20632 -10.17611
   1 1   C  1S          0.00000  -0.00001   0.00068  -0.00001   0.56293
   2        2S          0.00001   0.00004   0.00056   0.00000   0.46325
   3        2PX         0.00000   0.00007   0.00051  -0.00002   0.00020
   4        2PY         0.00011   0.00002   0.00027  -0.00001   0.00003
   5        2PZ         0.00001  -0.00002  -0.00012   0.00000  -0.00004
   6        3S         -0.00017  -0.00025   0.00005  -0.00027   0.01870
   7        3PX        -0.00015  -0.00043  -0.00152   0.00007  -0.00137
   8        3PY        -0.00050  -0.00016  -0.00074   0.00002  -0.00055
   9        3PZ         0.00001   0.00010   0.00037  -0.00001   0.00032
  10        4S          0.00482   0.00256   0.00724   0.00515  -0.00740
  11        4PX         0.00167   0.00027   0.00280   0.00129  -0.00085
  12        4PY        -0.00075   0.00164   0.00104   0.00125  -0.00105
  13        4PZ        -0.00047   0.00012  -0.00059  -0.00046   0.00019
  14        5D 0        0.00008   0.00004   0.00057   0.00002   0.00030
  15        5D+1        0.00000   0.00006   0.00033   0.00003   0.00022
  16        5D-1        0.00009   0.00005   0.00016  -0.00001   0.00010
  17        5D+2        0.00005  -0.00021  -0.00038   0.00001  -0.00032
  18        5D-2       -0.00038  -0.00015  -0.00073  -0.00001  -0.00044
  19 2   C  1S         -0.00002   0.00000   0.56301   0.00001  -0.00070
  20        2S          0.00006   0.00007   0.46346   0.00000  -0.00058
  21        2PX         0.00004   0.00037   0.00034   0.00004  -0.00046
  22        2PY         0.00039  -0.00036  -0.00018   0.00002  -0.00030
  23        2PZ         0.00002  -0.00012  -0.00012   0.00001   0.00011
  24        3S          0.00073   0.00026   0.01698   0.00013   0.00015
  25        3PX        -0.00021  -0.00102   0.00027  -0.00036   0.00109
  26        3PY        -0.00104   0.00116   0.00141  -0.00013   0.00086
  27        3PZ        -0.00002   0.00034   0.00001   0.00000  -0.00024
  28        4S          0.00003   0.00287  -0.00404  -0.00135   0.00121
  29        4PX         0.00120   0.00502   0.00538   0.00459  -0.00216
  30        4PY         0.00812  -0.00097   0.00548   0.00246   0.00063
  31        4PZ         0.00007  -0.00145  -0.00130  -0.00096   0.00059
  32        5D 0        0.00031   0.00017  -0.00157  -0.00006   0.00016
  33        5D+1       -0.00016   0.00022  -0.00052  -0.00002   0.00017
  34        5D-1       -0.00006  -0.00029   0.00024   0.00001   0.00016
  35        5D+2        0.00104  -0.00029  -0.00106   0.00003  -0.00046
  36        5D-2       -0.00003   0.00105  -0.00019   0.00006  -0.00061
  37 3   O  1S          0.55130   0.00000  -0.00009   0.00000   0.00000
  38        2S          0.46973   0.00004  -0.00009  -0.00001   0.00002
  39        2PX         0.00003  -0.00001  -0.00006   0.00003  -0.00001
  40        2PY        -0.00117  -0.00008  -0.00055  -0.00003  -0.00007
  41        2PZ        -0.00007  -0.00001  -0.00001   0.00000   0.00000
  42        3S          0.01385  -0.00019   0.00078   0.00010  -0.00004
  43        3PX        -0.00007   0.00004   0.00025  -0.00010   0.00006
  44        3PY        -0.00084   0.00041   0.00172   0.00012   0.00037
  45        3PZ        -0.00001   0.00003   0.00003  -0.00001   0.00001
  46        4S         -0.01102  -0.00062  -0.00704  -0.00131  -0.00105
  47        4PX         0.00001  -0.00099  -0.00087  -0.00041   0.00028
  48        4PY         0.00233   0.00022   0.00287  -0.00007   0.00022
  49        4PZ         0.00009   0.00025   0.00034   0.00017  -0.00008
  50        5D 0       -0.00015   0.00002   0.00058  -0.00005   0.00004
  51        5D+1        0.00000  -0.00003   0.00003  -0.00001  -0.00002
  52        5D-1        0.00002  -0.00005  -0.00007   0.00000   0.00001
  53        5D+2       -0.00027   0.00015   0.00088  -0.00001   0.00013
  54        5D-2        0.00002   0.00015  -0.00005   0.00003  -0.00007
  55 4   N  1S          0.00000   0.55735  -0.00005  -0.00003   0.00000
  56        2S          0.00004   0.46569  -0.00004  -0.00006   0.00004
  57        2PX        -0.00009   0.00017  -0.00041   0.00026  -0.00009
  58        2PY         0.00008  -0.00011   0.00022   0.00008   0.00000
  59        2PZ         0.00003   0.00012   0.00012  -0.00006   0.00003
  60        3S         -0.00026   0.01608   0.00066   0.00049  -0.00020
  61        3PX         0.00051  -0.00057   0.00115  -0.00034   0.00047
  62        3PY        -0.00036  -0.00019  -0.00053  -0.00001  -0.00004
  63        3PZ        -0.00017   0.00025  -0.00034   0.00010  -0.00013
  64        4S          0.00201  -0.01166  -0.00243   0.00028   0.00033
  65        4PX        -0.00298  -0.00025   0.00002   0.00019  -0.00177
  66        4PY        -0.00190  -0.00447  -0.00446  -0.00193  -0.00051
  67        4PZ         0.00083  -0.00013  -0.00006   0.00036   0.00042
  68        5D 0       -0.00005  -0.00068   0.00044   0.00015   0.00000
  69        5D+1       -0.00002  -0.00022   0.00041   0.00017   0.00003
  70        5D-1       -0.00008  -0.00001  -0.00025   0.00007  -0.00003
  71        5D+2       -0.00001  -0.00044  -0.00048  -0.00029  -0.00012
  72        5D-2        0.00018  -0.00018   0.00066  -0.00029   0.00007
  73 5   C  1S          0.00000   0.00001   0.00000   0.56303   0.00001
  74        2S         -0.00001  -0.00002  -0.00002   0.46331   0.00002
  75        2PX         0.00003  -0.00027   0.00006  -0.00058   0.00001
  76        2PY         0.00004  -0.00018  -0.00002  -0.00050   0.00001
  77        2PZ         0.00000   0.00007  -0.00001   0.00031   0.00001
  78        3S          0.00011   0.00013   0.00017   0.01839  -0.00021
  79        3PX        -0.00024   0.00030  -0.00033   0.00056  -0.00008
  80        3PY        -0.00018   0.00043   0.00003   0.00112  -0.00006
  81        3PZ         0.00004  -0.00031   0.00005  -0.00155  -0.00005
  82        4S          0.00255   0.00541   0.00136  -0.01078   0.00259
  83        4PX        -0.00022  -0.00172  -0.00103   0.00011  -0.00080
  84        4PY        -0.00021   0.00014   0.00166  -0.00030  -0.00002
  85        4PZ         0.00012   0.00032   0.00005  -0.00281   0.00043
  86        5D 0        0.00003   0.00032  -0.00007   0.00014  -0.00002
  87        5D+1        0.00005   0.00014   0.00003  -0.00033   0.00000
  88        5D-1        0.00000   0.00007  -0.00007   0.00020   0.00000
  89        5D+2        0.00004  -0.00023   0.00010  -0.00068   0.00000
  90        5D-2        0.00001  -0.00050  -0.00013  -0.00067   0.00000
  91 6   C  1S          0.00000   0.00000   0.00000   0.00153  -0.00002
  92        2S         -0.00001   0.00001  -0.00001   0.00125  -0.00001
  93        2PX         0.00002  -0.00006   0.00000  -0.00028  -0.00001
  94        2PY         0.00000   0.00001   0.00001   0.00003   0.00000
  95        2PZ         0.00000  -0.00007   0.00000  -0.00043  -0.00001
  96        3S          0.00007  -0.00004   0.00002   0.00009   0.00002
  97        3PX        -0.00005   0.00033  -0.00002   0.00078   0.00006
  98        3PY         0.00003  -0.00002  -0.00002  -0.00009  -0.00002
  99        3PZ         0.00002   0.00039   0.00006   0.00114   0.00003
 100        4S         -0.00057  -0.00032   0.00043   0.00554  -0.00072
 101        4PX         0.00031   0.00011   0.00017  -0.00155   0.00025
 102        4PY         0.00003  -0.00038  -0.00074   0.00053  -0.00013
 103        4PZ         0.00040   0.00033  -0.00022  -0.00126   0.00013
 104        5D 0       -0.00004  -0.00008   0.00001  -0.00053   0.00000
 105        5D+1       -0.00005  -0.00021  -0.00002  -0.00074  -0.00001
 106        5D-1        0.00000  -0.00001   0.00003   0.00005  -0.00001
 107        5D+2        0.00001  -0.00004  -0.00002  -0.00018   0.00000
 108        5D-2        0.00002   0.00006   0.00002   0.00007   0.00002
 109 7   H  1S          0.00007  -0.00009   0.00000   0.00003   0.00014
 110        2S         -0.00112   0.00008  -0.00113  -0.00033  -0.00280
 111        3S         -0.00036   0.00031   0.00011   0.00009   0.00134
 112        4PX         0.00004  -0.00005   0.00010  -0.00001   0.00034
 113        4PY        -0.00023  -0.00010  -0.00031  -0.00007  -0.00205
 114        4PZ        -0.00004   0.00000  -0.00006   0.00002  -0.00027
 115 8   H  1S          0.00006   0.00003  -0.00007   0.00002   0.00007
 116        2S         -0.00051  -0.00050  -0.00113  -0.00042  -0.00262
 117        3S         -0.00004  -0.00011   0.00045  -0.00004   0.00149
 118        4PX        -0.00011   0.00006  -0.00006   0.00002  -0.00052
 119        4PY         0.00005  -0.00003   0.00018  -0.00001   0.00051
 120        4PZ         0.00013   0.00013   0.00038   0.00008   0.00200
 121 9   H  1S          0.00005   0.00002  -0.00007   0.00004   0.00006
 122        2S         -0.00050  -0.00042  -0.00105  -0.00059  -0.00261
 123        3S         -0.00003  -0.00009   0.00044  -0.00010   0.00150
 124        4PX        -0.00017   0.00000  -0.00024  -0.00004  -0.00147
 125        4PY         0.00006  -0.00002   0.00022   0.00003   0.00078
 126        4PZ        -0.00004  -0.00015  -0.00025  -0.00008  -0.00134
 127 10  H  1S          0.00000   0.00001   0.00003  -0.00006  -0.00006
 128        2S         -0.00140  -0.00288  -0.00199  -0.00091  -0.00034
 129        3S          0.00027   0.00029   0.00002  -0.00013  -0.00005
 130        4PX         0.00007  -0.00012  -0.00029   0.00007   0.00005
 131        4PY        -0.00027  -0.00189  -0.00031  -0.00016  -0.00005
 132        4PZ         0.00002   0.00015   0.00014  -0.00001   0.00000
 133 11  H  1S          0.00002   0.00000   0.00002  -0.00009   0.00002
 134        2S         -0.00028  -0.00137  -0.00086  -0.00212  -0.00038
 135        3S         -0.00027  -0.00044  -0.00086   0.00129  -0.00005
 136        4PX         0.00007  -0.00005   0.00004  -0.00036  -0.00003
 137        4PY        -0.00003   0.00028   0.00004   0.00213   0.00003
 138        4PZ         0.00001  -0.00008  -0.00007  -0.00041  -0.00002
 139 12  H  1S          0.00001  -0.00001  -0.00001   0.00003   0.00001
 140        2S         -0.00023  -0.00095   0.00038  -0.00285  -0.00019
 141        3S         -0.00018  -0.00002   0.00013   0.00128   0.00004
 142        4PX        -0.00002   0.00018   0.00003   0.00090   0.00004
 143        4PY        -0.00002  -0.00019  -0.00004  -0.00121  -0.00002
 144        4PZ        -0.00002  -0.00020   0.00010  -0.00159  -0.00002
 145 13  H  1S          0.00000  -0.00003   0.00001  -0.00003  -0.00001
 146        2S         -0.00001  -0.00009  -0.00007  -0.00110   0.00007
 147        3S          0.00007   0.00035   0.00012   0.00007   0.00006
 148        4PX        -0.00001   0.00004  -0.00003   0.00038  -0.00002
 149        4PY         0.00001   0.00007   0.00007   0.00013   0.00001
 150        4PZ        -0.00003  -0.00005   0.00001  -0.00013  -0.00001
 151 14  H  1S          0.00000   0.00004   0.00003  -0.00006  -0.00001
 152        2S          0.00008  -0.00024  -0.00005  -0.00103   0.00014
 153        3S         -0.00033  -0.00022   0.00013  -0.00027   0.00000
 154        4PX         0.00001   0.00005   0.00006  -0.00022   0.00002
 155        4PY         0.00001   0.00010   0.00004   0.00019  -0.00001
 156        4PZ         0.00004   0.00012   0.00006   0.00020  -0.00001
 157 15  H  1S         -0.00001   0.00007   0.00005  -0.00006   0.00000
 158        2S          0.00007  -0.00043  -0.00034  -0.00086   0.00002
 159        3S         -0.00006  -0.00018  -0.00024   0.00036  -0.00005
 160        4PX        -0.00001   0.00008  -0.00001   0.00003   0.00000
 161        4PY         0.00001  -0.00011  -0.00005  -0.00033   0.00000
 162        4PZ        -0.00001   0.00005   0.00002   0.00003   0.00001
                           6         7         8         9        10
                           O         O         O         O         O
     Eigenvalues --   -10.16662  -1.02893  -0.92095  -0.76956  -0.72573
   1 1   C  1S          0.00002  -0.01190  -0.00559   0.05267  -0.08509
   2        2S          0.00002  -0.01829  -0.00858   0.08150  -0.13195
   3        2PX        -0.00001   0.00919   0.00630  -0.01510   0.00186
   4        2PY        -0.00001   0.00722  -0.00362  -0.00275   0.00478
   5        2PZ         0.00000  -0.00207  -0.00178   0.00382   0.00006
   6        3S         -0.00006   0.04809   0.02194  -0.21454   0.34966
   7        3PX         0.00003   0.01628   0.01157  -0.02942   0.01025
   8        3PY         0.00002   0.01444  -0.00574  -0.00714   0.01006
   9        3PZ        -0.00002  -0.00351  -0.00322   0.00742  -0.00167
  10        4S          0.00089  -0.01008   0.00121  -0.10832   0.18319
  11        4PX         0.00019  -0.00716   0.00303  -0.00324  -0.00684
  12        4PY         0.00034   0.00191  -0.01084   0.00414  -0.00677
  13        4PZ        -0.00004   0.00190  -0.00099   0.00123   0.00273
  14        5D 0       -0.00001  -0.00186  -0.00118   0.00269  -0.00103
  15        5D+1        0.00001  -0.00079  -0.00166   0.00224  -0.00057
  16        5D-1       -0.00001  -0.00119   0.00027   0.00069  -0.00039
  17        5D+2        0.00001   0.00056   0.00369  -0.00374   0.00071
  18        5D-2        0.00001   0.00492  -0.00098  -0.00276   0.00204
  19 2   C  1S          0.00000  -0.07244  -0.00981   0.03548  -0.01571
  20        2S         -0.00001  -0.11043  -0.01553   0.05548  -0.02474
  21        2PX         0.00003   0.01650   0.03930   0.00974  -0.06354
  22        2PY        -0.00001   0.06761  -0.08036   0.06155  -0.02551
  23        2PZ         0.00000  -0.00137  -0.01379   0.00129   0.01649
  24        3S          0.00013   0.29374   0.04193  -0.15542   0.06834
  25        3PX        -0.00009   0.02464   0.05698   0.01783  -0.09627
  26        3PY         0.00007   0.08307  -0.10928   0.08614  -0.03756
  27        3PZ         0.00002  -0.00269  -0.01947   0.00115   0.02523
  28        4S         -0.00020   0.07675   0.00360  -0.07173   0.05318
  29        4PX         0.00096  -0.01557  -0.01578   0.01194  -0.03793
  30        4PY         0.00016  -0.02736  -0.00772   0.02501  -0.02562
  31        4PZ        -0.00039   0.00315   0.00348  -0.00307   0.00858
  32        5D 0        0.00002  -0.01662  -0.00091   0.00434  -0.00131
  33        5D+1       -0.00002  -0.00267  -0.00533   0.00370  -0.00106
  34        5D-1        0.00001   0.00274   0.00252  -0.00100  -0.00304
  35        5D+2       -0.00004  -0.01968   0.01562  -0.00369   0.00506
  36        5D-2        0.00001  -0.00215  -0.01217   0.00250   0.01081
  37 3   O  1S          0.00000  -0.09437   0.05009  -0.02128   0.01286
  38        2S         -0.00001  -0.15066   0.08028  -0.03434   0.02079
  39        2PX        -0.00002   0.00011   0.00716   0.00517  -0.01461
  40        2PY        -0.00001  -0.06992   0.02755  -0.00127   0.00037
  41        2PZ         0.00000  -0.00321  -0.00059  -0.00103   0.00429
  42        3S          0.00006   0.43017  -0.23229   0.10119  -0.06242
  43        3PX         0.00007   0.00016   0.01050   0.00766  -0.02216
  44        3PY         0.00004  -0.10164   0.03931  -0.00295   0.00074
  45        3PZ        -0.00001  -0.00468  -0.00094  -0.00168   0.00645
  46        4S         -0.00025   0.30373  -0.16551   0.08185  -0.04549
  47        4PX        -0.00029   0.00358   0.00823   0.00338  -0.00919
  48        4PY         0.00004  -0.04161   0.01391   0.00222  -0.00270
  49        4PZ         0.00007  -0.00287  -0.00144  -0.00003   0.00294
  50        5D 0        0.00001  -0.00663   0.00260  -0.00052  -0.00007
  51        5D+1        0.00000   0.00046  -0.00037   0.00001   0.00000
  52        5D-1        0.00000   0.00116   0.00024   0.00017  -0.00112
  53        5D+2        0.00001  -0.01342   0.00543  -0.00104   0.00077
  54        5D-2        0.00001  -0.00009  -0.00268  -0.00063   0.00381
  55 4   N  1S          0.00000  -0.03842  -0.09695   0.01474   0.03131
  56        2S          0.00001  -0.06021  -0.15250   0.02328   0.04968
  57        2PX         0.00006  -0.01134   0.00055   0.06902   0.00239
  58        2PY         0.00002   0.01493   0.00062   0.01237   0.00368
  59        2PZ         0.00000   0.00535   0.00586  -0.01357   0.00239
  60        3S         -0.00004   0.16455   0.41827  -0.06561  -0.14125
  61        3PX        -0.00027  -0.01816   0.00433   0.10302   0.00392
  62        3PY        -0.00012   0.02433   0.00210   0.01820   0.00534
  63        3PZ        -0.00002   0.00853   0.00815  -0.01994   0.00353
  64        4S         -0.00034   0.09805   0.30235  -0.04170  -0.11833
  65        4PX         0.00023   0.00766  -0.00392   0.05742  -0.00183
  66        4PY        -0.00066   0.02546   0.01371   0.01059   0.00460
  67        4PZ         0.00018  -0.00060   0.00592  -0.01169   0.00312
  68        5D 0        0.00002  -0.00421  -0.00995   0.00037   0.00169
  69        5D+1        0.00005  -0.00200  -0.00513   0.00246   0.00068
  70        5D-1       -0.00001   0.00149   0.00006  -0.00082   0.00000
  71        5D+2       -0.00007  -0.00058   0.00330   0.00075   0.00509
  72        5D-2       -0.00005  -0.00371   0.00028   0.00594   0.00179
  73 5   C  1S         -0.00155  -0.01225  -0.04353  -0.06540  -0.02492
  74        2S         -0.00129  -0.01873  -0.06709  -0.10144  -0.03870
  75        2PX         0.00029  -0.01179  -0.03139   0.01275   0.03736
  76        2PY        -0.00004  -0.00262  -0.01503  -0.00143   0.00805
  77        2PZ         0.00044   0.00249   0.00749   0.01474   0.01539
  78        3S          0.00016   0.04703   0.17533   0.27193   0.10263
  79        3PX        -0.00056  -0.01814  -0.05129   0.01829   0.05766
  80        3PY         0.00022  -0.00418  -0.02656  -0.00521   0.01100
  81        3PZ        -0.00118   0.00485   0.01587   0.02925   0.02649
  82        4S          0.00259   0.00066   0.06467   0.13496   0.07961
  83        4PX         0.00054   0.00240   0.00021   0.01388   0.01545
  84        4PY         0.00018  -0.00153  -0.00862   0.00223   0.00172
  85        4PZ         0.00089   0.00353   0.00453   0.00938   0.01074
  86        5D 0       -0.00035  -0.00300  -0.00648   0.00199   0.00643
  87        5D+1       -0.00066  -0.00180  -0.00329   0.00469   0.00699
  88        5D-1        0.00003  -0.00061  -0.00202  -0.00064   0.00035
  89        5D+2       -0.00032   0.00349   0.00865   0.00190  -0.00188
  90        5D-2       -0.00008   0.00237   0.00959   0.00086  -0.00425
  91 6   C  1S          0.56295  -0.00260  -0.01354  -0.06109  -0.05752
  92        2S          0.46327  -0.00399  -0.02086  -0.09448  -0.08910
  93        2PX        -0.00007  -0.00210  -0.00840  -0.01196  -0.00126
  94        2PY        -0.00004  -0.00010  -0.00121   0.00044   0.00126
  95        2PZ        -0.00018  -0.00133  -0.00691  -0.01728  -0.00723
  96        3S          0.01853   0.01052   0.05439   0.24776   0.23494
  97        3PX         0.00091  -0.00423  -0.01578  -0.02239  -0.00412
  98        3PY         0.00002  -0.00013  -0.00145   0.00099   0.00204
  99        3PZ         0.00132  -0.00364  -0.01444  -0.03223  -0.01440
 100        4S         -0.00727   0.00006   0.01549   0.12831   0.12796
 101        4PX         0.00093   0.00045  -0.00094  -0.00193   0.00307
 102        4PY        -0.00007   0.00112   0.00223  -0.00136  -0.00059
 103        4PZ         0.00080  -0.00138  -0.00010  -0.00646  -0.00079
 104        5D 0       -0.00031   0.00043   0.00126   0.00349   0.00185
 105        5D+1       -0.00057   0.00143   0.00424   0.00579   0.00141
 106        5D-1        0.00003   0.00000   0.00027  -0.00037  -0.00068
 107        5D+2       -0.00019   0.00060   0.00191   0.00194   0.00021
 108        5D-2        0.00001  -0.00011   0.00007  -0.00022  -0.00012
 109 7   H  1S          0.00000   0.00406   0.00644  -0.03890   0.06331
 110        2S          0.00000   0.00940   0.00504  -0.04609   0.07535
 111        3S          0.00007   0.00035  -0.00102  -0.00164   0.00488
 112        4PX         0.00000   0.00048   0.00069  -0.00059  -0.00089
 113        4PY         0.00000   0.00228   0.00123  -0.00849   0.01296
 114        4PZ         0.00000   0.00010  -0.00008  -0.00062   0.00133
 115 8   H  1S         -0.00001   0.00518   0.00136  -0.03421   0.06545
 116        2S         -0.00003   0.00783   0.00325  -0.04178   0.07885
 117        3S         -0.00004  -0.00069  -0.00032   0.00037   0.00414
 118        4PX         0.00002   0.00089   0.00009  -0.00296   0.00418
 119        4PY         0.00000   0.00002  -0.00021   0.00148  -0.00239
 120        4PZ         0.00000  -0.00189  -0.00075   0.00744  -0.01273
 121 9   H  1S          0.00001   0.00528   0.00110  -0.03402   0.06514
 122        2S         -0.00011   0.00789   0.00338  -0.04129   0.07935
 123        3S         -0.00004  -0.00070  -0.00027  -0.00004   0.00426
 124        4PX        -0.00001   0.00180   0.00042  -0.00628   0.01011
 125        4PY         0.00000  -0.00020  -0.00035   0.00244  -0.00422
 126        4PZ        -0.00002   0.00115   0.00054  -0.00449   0.00821
 127 10  H  1S          0.00005   0.01966   0.07285  -0.02430  -0.02982
 128        2S         -0.00058   0.02731   0.07082  -0.02618  -0.02981
 129        3S         -0.00005  -0.00185   0.00130  -0.00129  -0.00437
 130        4PX        -0.00008  -0.00063   0.00130   0.00338  -0.00084
 131        4PY        -0.00014   0.00669   0.01706  -0.00503  -0.00560
 132        4PZ        -0.00003  -0.00012  -0.00084  -0.00042   0.00060
 133 11  H  1S         -0.00006   0.00703   0.02023   0.04329   0.01732
 134        2S         -0.00088   0.01128   0.02622   0.04952   0.01685
 135        3S          0.00014   0.00348  -0.00086   0.00139   0.00096
 136        4PX        -0.00001  -0.00070   0.00062   0.00216   0.00237
 137        4PY         0.00034  -0.00186  -0.00655  -0.00913  -0.00289
 138        4PZ        -0.00004   0.00071   0.00168   0.00302   0.00152
 139 12  H  1S         -0.00007   0.00430   0.02117   0.04451   0.01948
 140        2S         -0.00065   0.00727   0.02426   0.05237   0.01989
 141        3S          0.00019   0.00077  -0.00142   0.00181   0.00083
 142        4PX         0.00017  -0.00125  -0.00380  -0.00326   0.00031
 143        4PY        -0.00018   0.00093   0.00263   0.00481   0.00204
 144        4PZ        -0.00019   0.00124   0.00473   0.00810   0.00343
 145 13  H  1S          0.00010   0.00075   0.00536   0.04064   0.04431
 146        2S         -0.00273   0.00156   0.00743   0.04664   0.05159
 147        3S          0.00132  -0.00175  -0.00158   0.00103   0.00414
 148        4PX         0.00184  -0.00045  -0.00197  -0.00845  -0.00806
 149        4PY         0.00088  -0.00025  -0.00090  -0.00341  -0.00342
 150        4PZ        -0.00057   0.00010   0.00003   0.00104   0.00138
 151 14  H  1S          0.00007   0.00139   0.00719   0.03967   0.04103
 152        2S         -0.00261   0.00279   0.00937   0.04598   0.04814
 153        3S          0.00154   0.00190  -0.00143   0.00230   0.00302
 154        4PX        -0.00097  -0.00008   0.00025   0.00303   0.00342
 155        4PY         0.00111  -0.00050  -0.00145  -0.00446  -0.00423
 156        4PZ         0.00153  -0.00072  -0.00194  -0.00737  -0.00661
 157 15  H  1S          0.00009   0.00106   0.00722   0.04023   0.04180
 158        2S         -0.00260   0.00281   0.01094   0.04652   0.04865
 159        3S          0.00144   0.00079   0.00105   0.00107   0.00333
 160        4PX         0.00020  -0.00037  -0.00112  -0.00194  -0.00126
 161        4PY        -0.00201   0.00060   0.00215   0.00808   0.00780
 162        4PZ         0.00054  -0.00022  -0.00111  -0.00355  -0.00297
                          11        12        13        14        15
                           O         O         O         O         O
     Eigenvalues --    -0.63661  -0.58468  -0.50589  -0.47243  -0.45221
   1 1   C  1S          0.03148   0.00966   0.01936  -0.00554   0.00201
   2        2S          0.04900   0.01508   0.03029  -0.00854   0.00317
   3        2PX         0.02657   0.02367   0.08473  -0.03498   0.05506
   4        2PY         0.00214   0.00856   0.04379  -0.10801  -0.01337
   5        2PZ        -0.00628  -0.00693  -0.02634  -0.01438   0.10433
   6        3S         -0.13012  -0.03845  -0.07953   0.01684  -0.00877
   7        3PX         0.03883   0.03439   0.12733  -0.05442   0.08075
   8        3PY         0.00349   0.01160   0.06570  -0.15682  -0.01921
   9        3PZ        -0.00904  -0.01022  -0.03971  -0.02060   0.15333
  10        4S         -0.09195  -0.04507  -0.08500   0.08341  -0.00670
  11        4PX         0.01505   0.00529   0.06116   0.00416   0.05762
  12        4PY         0.00191  -0.00078   0.03541  -0.08666  -0.01554
  13        4PZ        -0.00282  -0.00447  -0.02048  -0.02235   0.10406
  14        5D 0       -0.00281  -0.00103  -0.00788  -0.00091   0.00055
  15        5D+1       -0.00216  -0.00183  -0.00532   0.00052  -0.00407
  16        5D-1       -0.00038  -0.00085  -0.00340   0.00231   0.00974
  17        5D+2        0.00373   0.00431   0.00663  -0.00708   0.00038
  18        5D-2        0.00261   0.00205   0.01159  -0.01189   0.00464
  19 2   C  1S         -0.02618  -0.04663  -0.03447   0.03427   0.00191
  20        2S         -0.04103  -0.07332  -0.05462   0.05437   0.00303
  21        2PX         0.04166   0.06364  -0.07592   0.07819   0.00808
  22        2PY        -0.03633  -0.04334  -0.03431  -0.04257  -0.02704
  23        2PZ        -0.00935  -0.02319   0.00556  -0.04672   0.10573
  24        3S          0.11904   0.21448   0.16135  -0.16364  -0.01155
  25        3PX         0.06096   0.09056  -0.10936   0.11011   0.01439
  26        3PY        -0.04810  -0.05758  -0.04784  -0.06157  -0.03882
  27        3PZ        -0.01302  -0.03348   0.00648  -0.06946   0.16445
  28        4S          0.05441   0.11254   0.11469  -0.15315  -0.01058
  29        4PX         0.01435   0.01139  -0.05082   0.07663   0.00601
  30        4PY        -0.01394  -0.03859  -0.03699   0.05360  -0.00416
  31        4PZ        -0.00302  -0.00511   0.00299  -0.03756   0.09739
  32        5D 0       -0.00318  -0.00272  -0.00121   0.00061  -0.00051
  33        5D+1        0.00026  -0.00667   0.00094   0.00093   0.00241
  34        5D-1        0.00291  -0.00001   0.00229  -0.00009   0.00186
  35        5D+2       -0.00464   0.01462  -0.01389  -0.00961  -0.00396
  36        5D-2       -0.01004   0.00052  -0.00525   0.00192   0.00091
  37 3   O  1S          0.00682   0.03014   0.00942  -0.03395  -0.00649
  38        2S          0.01108   0.04878   0.01541  -0.05497  -0.01045
  39        2PX         0.00777   0.02700  -0.04212   0.05118   0.01443
  40        2PY        -0.00720  -0.02996  -0.02177   0.09859   0.02289
  41        2PZ        -0.00069  -0.01044   0.00246  -0.02483   0.07449
  42        3S         -0.03256  -0.14574  -0.04699   0.16458   0.03055
  43        3PX         0.01213   0.03866  -0.06115   0.07566   0.02143
  44        3PY        -0.00864  -0.04107  -0.02748   0.13652   0.03185
  45        3PZ        -0.00114  -0.01486   0.00360  -0.03706   0.10985
  46        4S         -0.03492  -0.14170  -0.05127   0.19097   0.04150
  47        4PX         0.00632   0.02789  -0.04113   0.05029   0.01825
  48        4PY        -0.00578  -0.03088  -0.02229   0.10378   0.02420
  49        4PZ         0.00007  -0.01148   0.00138  -0.02606   0.08184
  50        5D 0        0.00017  -0.00163  -0.00041   0.00571   0.00082
  51        5D+1        0.00020  -0.00053   0.00024  -0.00009  -0.00036
  52        5D-1        0.00038   0.00179  -0.00029   0.00346  -0.01090
  53        5D+2       -0.00041  -0.00197  -0.00094   0.00837   0.00216
  54        5D-2       -0.00260  -0.00442   0.00598  -0.00714  -0.00180
  55 4   N  1S         -0.00715   0.01901   0.01808   0.00033   0.00757
  56        2S         -0.01132   0.03021   0.02907   0.00047   0.01224
  57        2PX        -0.09711  -0.06628  -0.07572  -0.09369  -0.00174
  58        2PY        -0.00884   0.17083  -0.08747  -0.02878  -0.03605
  59        2PZ         0.03733   0.01120  -0.00871  -0.00884   0.09238
  60        3S          0.03169  -0.08535  -0.08637  -0.00273  -0.03827
  61        3PX        -0.14391  -0.09821  -0.11038  -0.13514  -0.00033
  62        3PY        -0.01397   0.24872  -0.12794  -0.03970  -0.05243
  63        3PZ         0.05576   0.01639  -0.01453  -0.01489   0.13954
  64        4S          0.02286  -0.07639  -0.09665  -0.00064  -0.03050
  65        4PX        -0.08624  -0.05074  -0.08048  -0.13578  -0.01072
  66        4PY        -0.01150   0.16204  -0.08770  -0.04564  -0.03772
  67        4PZ         0.03592   0.00666  -0.01233  -0.00722   0.11714
  68        5D 0        0.00022   0.00178   0.00020  -0.00155   0.00269
  69        5D+1        0.00138  -0.00352  -0.00317  -0.00114  -0.00219
  70        5D-1        0.00294   0.00397  -0.00223  -0.00131   0.00409
  71        5D+2       -0.00251   0.00993   0.00053  -0.00670  -0.00335
  72        5D-2       -0.00837  -0.00606  -0.00286  -0.00284   0.00441
  73 5   C  1S          0.05972  -0.02241  -0.02147  -0.00044  -0.01171
  74        2S          0.09323  -0.03504  -0.03369  -0.00077  -0.01850
  75        2PX         0.03542  -0.00224   0.10524   0.04995   0.02823
  76        2PY         0.00665   0.06191   0.00092   0.07038   0.05260
  77        2PZ         0.04750  -0.01211  -0.06812  -0.04150   0.05933
  78        3S         -0.25707   0.09590   0.08999  -0.00045   0.05226
  79        3PX         0.05834  -0.00458   0.15560   0.06970   0.04063
  80        3PY         0.01356   0.09362  -0.00002   0.10443   0.07654
  81        3PZ         0.06873  -0.01592  -0.09976  -0.06114   0.08871
  82        4S         -0.14428   0.06446   0.10686   0.04416   0.06089
  83        4PX         0.01084   0.00128   0.07630   0.02357   0.01820
  84        4PY         0.00126   0.05095  -0.01281   0.05440   0.05146
  85        4PZ         0.02867  -0.01033  -0.05879  -0.02803   0.04987
  86        5D 0        0.00769  -0.00137   0.00638  -0.00107   0.00634
  87        5D+1        0.00815  -0.00055   0.00371   0.00515  -0.00135
  88        5D-1       -0.00144   0.00040   0.00780   0.00328  -0.00424
  89        5D+2        0.00207   0.00343  -0.01164  -0.00674  -0.00769
  90        5D-2       -0.00410  -0.01239  -0.00951  -0.00772  -0.00066
  91 6   C  1S         -0.06559   0.00937   0.00755  -0.00003   0.00591
  92        2S         -0.10200   0.01458   0.01185  -0.00005   0.00926
  93        2PX         0.02599  -0.00711   0.02369   0.03511  -0.06614
  94        2PY        -0.00069   0.01882  -0.00036   0.04487   0.04438
  95        2PZ         0.03615  -0.01377  -0.05759  -0.02062  -0.03059
  96        3S          0.27119  -0.03880  -0.03240   0.00001  -0.02324
  97        3PX         0.03793  -0.01137   0.03557   0.05069  -0.09488
  98        3PY        -0.00094   0.02746  -0.00075   0.06571   0.06518
  99        3PZ         0.05263  -0.02109  -0.08421  -0.02967  -0.04446
 100        4S          0.18077  -0.02504  -0.02908  -0.00754  -0.03644
 101        4PX         0.01453  -0.00256   0.01942   0.03700  -0.06060
 102        4PY        -0.00251   0.01054   0.00416   0.03698   0.03710
 103        4PZ         0.02285  -0.00929  -0.04385  -0.01824  -0.02416
 104        5D 0       -0.00476   0.00184   0.00654   0.00245   0.00574
 105        5D+1       -0.00801   0.00208   0.00202  -0.00311   0.00511
 106        5D-1       -0.00004  -0.00244  -0.00248  -0.00323   0.00076
 107        5D+2       -0.00270   0.00176  -0.00023   0.00237   0.00466
 108        5D-2        0.00016  -0.00230   0.00311   0.00073  -0.00339
 109 7   H  1S         -0.02642  -0.01607  -0.04389   0.09308   0.00462
 110        2S         -0.03088  -0.02342  -0.05347   0.12088   0.00645
 111        3S         -0.00529  -0.01011  -0.01606   0.05188   0.00304
 112        4PX         0.00208  -0.00049   0.00615  -0.00096   0.00391
 113        4PY        -0.00423  -0.00178  -0.00405   0.00785  -0.00012
 114        4PZ        -0.00090  -0.00010  -0.00244   0.00011   0.00621
 115 8   H  1S         -0.03536  -0.01713  -0.05090  -0.01280   0.06379
 116        2S         -0.04230  -0.01856  -0.06335  -0.02118   0.07858
 117        3S         -0.00692  -0.00656  -0.02328  -0.00123   0.03710
 118        4PX        -0.00055   0.00054   0.00270  -0.00401   0.00622
 119        4PY         0.00129   0.00099   0.00404  -0.00598  -0.00252
 120        4PZ         0.00552   0.00245   0.00530   0.00218  -0.00298
 121 9   H  1S         -0.03635  -0.01603  -0.04346   0.00626  -0.09115
 122        2S         -0.04257  -0.01880  -0.05519   0.00198  -0.11540
 123        3S         -0.00727  -0.00698  -0.01903   0.01022  -0.04719
 124        4PX        -0.00332  -0.00076   0.00044  -0.00305  -0.00725
 125        4PY         0.00211   0.00138   0.00465  -0.00649   0.00369
 126        4PZ        -0.00417  -0.00215  -0.00524  -0.00060  -0.00199
 127 10  H  1S          0.01978  -0.14301   0.05257   0.03465   0.02751
 128        2S          0.01956  -0.16294   0.06711   0.04137   0.03509
 129        3S          0.00439  -0.04878   0.02093   0.02315   0.01706
 130        4PX        -0.00498  -0.00617  -0.00372  -0.00729  -0.00038
 131        4PY         0.00342  -0.01639   0.00584   0.00299   0.00248
 132        4PZ         0.00210   0.00194  -0.00149  -0.00084   0.00726
 133 11  H  1S         -0.05665   0.06096   0.02397   0.06002   0.03555
 134        2S         -0.06988   0.06844   0.03218   0.06941   0.04020
 135        3S         -0.01003   0.00747   0.00268   0.04075   0.01205
 136        4PX        -0.00047   0.00228   0.00609   0.00287   0.00277
 137        4PY         0.01072  -0.00632  -0.00396  -0.00370  -0.00170
 138        4PZ        -0.00023   0.00164  -0.00264   0.00041   0.00506
 139 12  H  1S         -0.06550   0.00616   0.09518   0.01615  -0.03395
 140        2S         -0.08133   0.01207   0.11400   0.02217  -0.04347
 141        3S         -0.01334   0.00135   0.03849   0.00438  -0.02430
 142        4PX         0.00643  -0.00122  -0.00041   0.00116   0.00359
 143        4PY        -0.00577   0.00378   0.00615   0.00494  -0.00005
 144        4PZ        -0.00690   0.00050   0.00728  -0.00003  -0.00119
 145 13  H  1S          0.06520  -0.00583   0.01719   0.04206  -0.03468
 146        2S          0.07921  -0.00877   0.01966   0.05395  -0.04437
 147        3S          0.01445  -0.00176   0.00814   0.02017  -0.01787
 148        4PX        -0.00897   0.00027  -0.00140  -0.00450   0.00104
 149        4PY        -0.00460   0.00144  -0.00142  -0.00002   0.00486
 150        4PZ         0.00413  -0.00097  -0.00307  -0.00027  -0.00253
 151 14  H  1S          0.06583  -0.00672  -0.04727  -0.00461   0.01616
 152        2S          0.07814  -0.00613  -0.05979  -0.00496   0.01939
 153        3S          0.01150  -0.00241  -0.02181   0.00146   0.01768
 154        4PX         0.00598  -0.00107  -0.00151   0.00189  -0.00348
 155        4PY        -0.00610   0.00153   0.00416   0.00315   0.00119
 156        4PZ        -0.00692  -0.00038   0.00302  -0.00068  -0.00411
 157 15  H  1S          0.06569  -0.02495  -0.01759  -0.03396  -0.05555
 158        2S          0.07835  -0.03200  -0.02178  -0.04283  -0.07329
 159        3S          0.01375  -0.01009  -0.00612  -0.02149  -0.02922
 160        4PX        -0.00052   0.00089   0.00201   0.00316  -0.00279
 161        4PY         0.01069  -0.00294  -0.00271  -0.00250  -0.00541
 162        4PZ        -0.00184   0.00106  -0.00253   0.00090   0.00101
                          16        17        18        19        20
                           O         O         O         O         O
     Eigenvalues --    -0.43789  -0.41941  -0.40064  -0.39848  -0.37597
   1 1   C  1S          0.00186  -0.00024  -0.00242  -0.00167  -0.00367
   2        2S          0.00286  -0.00036  -0.00389  -0.00273  -0.00587
   3        2PX        -0.00165  -0.05181   0.11427  -0.04442   0.06353
   4        2PY         0.06705   0.06332  -0.01671   0.12238  -0.02345
   5        2PZ        -0.07096   0.11207   0.03374   0.00229  -0.04073
   6        3S         -0.00542   0.00082   0.01257   0.00872   0.01744
   7        3PX        -0.00082  -0.07671   0.16928  -0.06216   0.09540
   8        3PY         0.09732   0.09090  -0.02492   0.17319  -0.03422
   9        3PZ        -0.10412   0.16300   0.04745   0.00246  -0.05939
  10        4S         -0.02660  -0.00752   0.02584   0.03398   0.02764
  11        4PX        -0.00939  -0.05883   0.12851  -0.02816   0.07130
  12        4PY         0.05801   0.06299  -0.02382   0.10712  -0.02435
  13        4PZ        -0.06955   0.11116   0.03157  -0.00266  -0.04498
  14        5D 0       -0.00219   0.01386  -0.00502   0.00899  -0.00863
  15        5D+1        0.00241  -0.00215  -0.01060   0.00187   0.00006
  16        5D-1       -0.00737   0.00453   0.00284  -0.00293  -0.00066
  17        5D+2        0.00531   0.00266   0.00057   0.01766  -0.00086
  18        5D-2        0.00290  -0.00077   0.00767  -0.00318   0.00428
  19 2   C  1S          0.00212   0.00346   0.00362   0.01655   0.00181
  20        2S          0.00334   0.00560   0.00555   0.02609   0.00271
  21        2PX        -0.07825   0.02563  -0.07453   0.00839  -0.04746
  22        2PY         0.00162   0.04109  -0.08037  -0.11695  -0.03326
  23        2PZ        -0.02485   0.01533   0.00407  -0.00497   0.02828
  24        3S         -0.01342  -0.01581  -0.02137  -0.08360  -0.00880
  25        3PX        -0.11514   0.03758  -0.10828   0.00877  -0.06889
  26        3PY         0.00348   0.05922  -0.11625  -0.16633  -0.04844
  27        3PZ        -0.04099   0.02576   0.00656  -0.00626   0.04183
  28        4S         -0.00073   0.00034  -0.00446  -0.03390  -0.00302
  29        4PX        -0.07172   0.02779  -0.06402   0.00508  -0.04001
  30        4PY        -0.00340  -0.00132   0.00975   0.02339   0.00994
  31        4PZ        -0.02411   0.01354   0.00445   0.00219   0.03034
  32        5D 0       -0.00068   0.00454   0.00637   0.00280  -0.00074
  33        5D+1        0.00267  -0.01111  -0.00936  -0.00326   0.00255
  34        5D-1       -0.00071   0.00263  -0.00197   0.00186   0.00070
  35        5D+2        0.00259   0.00360   0.00420   0.02401   0.00814
  36        5D-2       -0.00311  -0.00552   0.00514  -0.01336   0.00333
  37 3   O  1S          0.00228   0.01008  -0.01862  -0.03037  -0.00841
  38        2S          0.00375   0.01628  -0.03018  -0.04935  -0.01370
  39        2PX        -0.04290   0.00793  -0.03553  -0.00450  -0.03377
  40        2PY         0.00687  -0.04148   0.10802   0.17786   0.04975
  41        2PZ        -0.02244   0.01369   0.00518   0.01024   0.02882
  42        3S         -0.01254  -0.04871   0.09067   0.14930   0.04225
  43        3PX        -0.06265   0.01237  -0.05314  -0.00568  -0.05021
  44        3PY         0.00995  -0.05788   0.14820   0.24174   0.06744
  45        3PZ        -0.03327   0.02017   0.00730   0.01399   0.04220
  46        4S         -0.00699  -0.06198   0.11549   0.18678   0.04878
  47        4PX        -0.04306   0.00764  -0.03869  -0.00678  -0.04080
  48        4PY         0.00596  -0.04657   0.12391   0.20528   0.06051
  49        4PZ        -0.02633   0.01543   0.00521   0.01220   0.03485
  50        5D 0        0.00016  -0.00238   0.00540   0.00797   0.00197
  51        5D+1        0.00022  -0.00083  -0.00012   0.00006   0.00038
  52        5D-1        0.00305  -0.00148  -0.00108  -0.00133  -0.00359
  53        5D+2        0.00166  -0.00370   0.00890   0.01386   0.00361
  54        5D-2        0.00625  -0.00166   0.00568  -0.00058   0.00445
  55 4   N  1S         -0.00280  -0.01306   0.00117  -0.00792  -0.00994
  56        2S         -0.00434  -0.02098   0.00190  -0.01278  -0.01599
  57        2PX         0.01675  -0.00613   0.03137  -0.04452   0.08884
  58        2PY        -0.04967  -0.00897   0.03376   0.03310   0.05165
  59        2PZ        -0.02257  -0.04325  -0.06874   0.03064   0.00842
  60        3S          0.01028   0.06282  -0.00659   0.03824   0.04800
  61        3PX         0.02513  -0.01222   0.05000  -0.06211   0.13332
  62        3PY        -0.07246  -0.01387   0.05039   0.04598   0.07569
  63        3PZ        -0.03389  -0.06373  -0.10455   0.04487   0.01430
  64        4S          0.02955   0.07064   0.01100   0.06356   0.08552
  65        4PX         0.01302   0.02145  -0.00472  -0.07844   0.08788
  66        4PY        -0.04214  -0.00160   0.02034   0.00828   0.04752
  67        4PZ        -0.02526  -0.06489  -0.07936   0.04501   0.01710
  68        5D 0       -0.00231   0.00151   0.00062   0.00064  -0.00075
  69        5D+1        0.00542  -0.00425  -0.00557  -0.00057   0.00039
  70        5D-1       -0.00377  -0.00135  -0.00393   0.00084   0.00155
  71        5D+2       -0.00601  -0.00803   0.00766   0.00604   0.00775
  72        5D-2        0.00875  -0.00025   0.00548  -0.00129   0.00417
  73 5   C  1S         -0.00106   0.01379   0.00243  -0.00198   0.00092
  74        2S         -0.00174   0.02189   0.00366  -0.00331   0.00126
  75        2PX        -0.04156  -0.02868  -0.08414   0.02498  -0.05296
  76        2PY         0.10077   0.02588  -0.00156  -0.00280  -0.04048
  77        2PZ         0.03246  -0.08084  -0.07903   0.02295   0.06548
  78        3S          0.00627  -0.06381  -0.00862   0.01186   0.00288
  79        3PX        -0.05968  -0.03912  -0.12894   0.03330  -0.07924
  80        3PY         0.14768   0.03999  -0.00314  -0.00218  -0.05965
  81        3PZ         0.04818  -0.12072  -0.11620   0.03384   0.09484
  82        4S          0.00435  -0.08417   0.01004   0.02287  -0.01289
  83        4PX        -0.03788  -0.01386  -0.08799   0.00965  -0.04218
  84        4PY         0.10137   0.03825  -0.00848  -0.01258  -0.03491
  85        4PZ         0.02310  -0.08045  -0.07114   0.03016   0.06779
  86        5D 0       -0.00212  -0.01096  -0.00465   0.00132  -0.01344
  87        5D+1        0.00540  -0.00048  -0.00365   0.00098   0.00093
  88        5D-1       -0.00158   0.00637   0.00171  -0.00417  -0.00151
  89        5D+2       -0.00785   0.00186  -0.00128   0.00298   0.01854
  90        5D-2        0.00809   0.00315   0.00267  -0.00515   0.01525
  91 6   C  1S         -0.00125  -0.00094   0.00064  -0.00015  -0.00103
  92        2S         -0.00198  -0.00142   0.00104  -0.00027  -0.00165
  93        2PX        -0.04060   0.11880   0.01523  -0.00679   0.10308
  94        2PY         0.11537   0.05915  -0.01756  -0.04519   0.05572
  95        2PZ         0.03528   0.02201   0.11684  -0.03640  -0.09690
  96        3S          0.00516   0.00066  -0.00560   0.00219   0.00597
  97        3PX        -0.05949   0.17134   0.02160  -0.01037   0.14679
  98        3PY         0.16779   0.08482  -0.02516  -0.06446   0.07960
  99        3PZ         0.05106   0.03250   0.17044  -0.05206  -0.13876
 100        4S          0.01670   0.02158   0.00617  -0.01155  -0.00273
 101        4PX        -0.04219   0.10767   0.01554  -0.00005   0.11034
 102        4PY         0.10833   0.05771  -0.01487  -0.05096   0.05252
 103        4PZ         0.03866   0.01299   0.11136  -0.03935  -0.10196
 104        5D 0        0.00224  -0.00572  -0.00398  -0.00005  -0.00899
 105        5D+1       -0.00429  -0.01105  -0.00896   0.00504   0.00188
 106        5D-1        0.00367  -0.00161   0.00304  -0.00392  -0.00278
 107        5D+2        0.00693   0.00467  -0.00736  -0.00195   0.01637
 108        5D-2       -0.00523   0.00630  -0.00470   0.00014   0.01433
 109 7   H  1S         -0.05094  -0.06928   0.02261  -0.11489   0.03404
 110        2S         -0.06738  -0.09549   0.02830  -0.17137   0.04825
 111        3S         -0.03183  -0.04692   0.01076  -0.10105   0.02310
 112        4PX         0.00074  -0.00269   0.00616  -0.00256   0.00246
 113        4PY        -0.00370  -0.00669   0.00250  -0.00883   0.00368
 114        4PZ        -0.00523   0.00591   0.00259  -0.00156  -0.00168
 115 8   H  1S         -0.04709   0.11536  -0.00067   0.03805  -0.05269
 116        2S         -0.05978   0.15900  -0.00279   0.04992  -0.07648
 117        3S         -0.02702   0.07085   0.00481   0.03553  -0.03807
 118        4PX        -0.00210   0.00257   0.00679  -0.00171   0.00197
 119        4PY         0.00555   0.00009  -0.00076   0.00690   0.00048
 120        4PZ         0.00186  -0.00949   0.00211  -0.00507   0.00442
 121 9   H  1S          0.05372  -0.00907  -0.09398   0.06648  -0.02213
 122        2S          0.07116  -0.01195  -0.13250   0.08963  -0.03338
 123        3S          0.03140  -0.00904  -0.05667   0.05650  -0.01507
 124        4PX         0.00653  -0.00414  -0.00315   0.00383   0.00168
 125        4PY         0.00141   0.00432   0.00415   0.00460  -0.00017
 126        4PZ         0.00095   0.00590  -0.00596   0.00641  -0.00454
 127 10  H  1S          0.04325   0.02021  -0.03867  -0.02424  -0.04501
 128        2S          0.05971   0.03084  -0.06576  -0.05816  -0.07531
 129        3S          0.02747   0.01006  -0.02470  -0.02654  -0.03933
 130        4PX         0.00125   0.00078   0.00080  -0.00041   0.00433
 131        4PY         0.00391   0.00282  -0.00514  -0.00217  -0.00477
 132        4PZ        -0.00251  -0.00390  -0.00435   0.00237   0.00136
 133 11  H  1S          0.07446   0.02588   0.02464  -0.00598  -0.04878
 134        2S          0.09214   0.03667   0.02905  -0.01464  -0.07225
 135        3S          0.03194   0.00447   0.02999   0.02394  -0.03225
 136        4PX         0.00057  -0.00031  -0.00338   0.00057  -0.00296
 137        4PY        -0.00572  -0.00327  -0.00358   0.00208   0.00366
 138        4PZ         0.00497  -0.00324  -0.00351   0.00092   0.00205
 139 12  H  1S         -0.07437   0.01572   0.01889  -0.00304  -0.05295
 140        2S         -0.10044   0.02379   0.02742  -0.00078  -0.07432
 141        3S         -0.04322   0.01757   0.01290  -0.00884  -0.04443
 142        4PX         0.00195  -0.00294  -0.00600   0.00146   0.00035
 143        4PY         0.00046   0.00269   0.00182   0.00012  -0.00474
 144        4PZ        -0.00722  -0.00215  -0.00216   0.00173  -0.00073
 145 13  H  1S          0.00316   0.10875  -0.01732  -0.01458   0.12725
 146        2S          0.00455   0.14665  -0.02308  -0.01911   0.18093
 147        3S          0.00421   0.07200  -0.01539  -0.01325   0.10428
 148        4PX        -0.00298  -0.00762   0.00277   0.00129  -0.00945
 149        4PY         0.00689  -0.00300  -0.00015  -0.00185  -0.00368
 150        4PZ         0.00210   0.00420   0.00643  -0.00251  -0.00218
 151 14  H  1S          0.08484   0.00056   0.06297  -0.04132  -0.07790
 152        2S          0.10600   0.00201   0.08397  -0.05543  -0.10699
 153        3S          0.03931  -0.00116   0.04382  -0.01726  -0.05462
 154        4PX         0.00332   0.00706   0.00500  -0.00296   0.00177
 155        4PY         0.00013   0.00350  -0.00589   0.00048   0.00908
 156        4PZ        -0.00766   0.00119   0.00033   0.00229   0.00198
 157 15  H  1S         -0.08470  -0.02580   0.04748   0.02704  -0.06253
 158        2S         -0.11285  -0.03437   0.06692   0.03605  -0.08981
 159        3S         -0.05347  -0.01789   0.03169   0.01758  -0.05619
 160        4PX        -0.00017   0.00793   0.00010  -0.00095   0.00795
 161        4PY        -0.00561   0.00000   0.00555   0.00092  -0.00434
 162        4PZ         0.00645   0.00260   0.00501  -0.00317  -0.00313
                          21        22        23        24        25
                           O         O         O         O         V
     Eigenvalues --    -0.35582  -0.35150  -0.25670  -0.24935   0.02200
   1 1   C  1S         -0.00014  -0.00039  -0.00687  -0.01610  -0.01355
   2        2S         -0.00019  -0.00061  -0.01090  -0.02566  -0.02115
   3        2PX         0.02250  -0.01967   0.02919   0.06537  -0.00452
   4        2PY        -0.00248   0.00775   0.02145   0.05185  -0.02661
   5        2PZ         0.02574  -0.09624  -0.00514  -0.01504   0.01828
   6        3S          0.00039   0.00176   0.03191   0.07821   0.04013
   7        3PX         0.03198  -0.02809   0.04080   0.09440  -0.00220
   8        3PY        -0.00266   0.01130   0.03186   0.07719  -0.02587
   9        3PZ         0.03650  -0.13656  -0.00821  -0.02133   0.02101
  10        4S         -0.00311   0.00044   0.07050   0.13937   0.45547
  11        4PX         0.02627  -0.02812   0.06057   0.08022  -0.00760
  12        4PY        -0.00185   0.00987   0.00725   0.03728  -0.09718
  13        4PZ         0.03928  -0.12253   0.04976  -0.04985   0.20893
  14        5D 0        0.00129  -0.00972   0.00139   0.00262  -0.01394
  15        5D+1       -0.00512   0.01654  -0.00027   0.00073   0.02767
  16        5D-1        0.00050  -0.00155  -0.00105  -0.00049   0.00564
  17        5D+2       -0.00361   0.00400   0.00091   0.00250   0.01131
  18        5D-2        0.00234  -0.00140   0.00003   0.00074   0.00280
  19 2   C  1S          0.00275   0.00031  -0.00381  -0.00553   0.00151
  20        2S          0.00446   0.00052  -0.00612  -0.00922   0.00258
  21        2PX        -0.04101   0.02108  -0.00837  -0.02597   0.03827
  22        2PY         0.02681  -0.00059  -0.00990  -0.01469  -0.00858
  23        2PZ        -0.02440   0.11986  -0.00328   0.00440   0.17848
  24        3S         -0.01537  -0.00268   0.01705   0.02886  -0.00444
  25        3PX        -0.06075   0.03198  -0.01811  -0.04378   0.06302
  26        3PY         0.03845  -0.00177  -0.01664  -0.02536  -0.00850
  27        3PZ        -0.03571   0.17814  -0.00172   0.00740   0.29059
  28        4S         -0.04245  -0.00496   0.03490   0.08063   0.02805
  29        4PX        -0.04925   0.03187   0.01984   0.05657   0.17886
  30        4PY         0.00418  -0.01059  -0.01995  -0.05341  -0.07816
  31        4PZ        -0.04377   0.16112  -0.05042  -0.00300   0.36368
  32        5D 0        0.00020  -0.00526  -0.01124   0.00552  -0.00222
  33        5D+1       -0.00346   0.01376   0.01652  -0.00489  -0.00856
  34        5D-1       -0.00921   0.02199  -0.04677  -0.00009  -0.01938
  35        5D+2       -0.00538   0.00464   0.00583   0.00522  -0.01213
  36        5D-2        0.00170   0.00742   0.01442   0.06575  -0.00550
  37 3   O  1S          0.00602   0.00218   0.00081   0.00112  -0.00538
  38        2S          0.00985   0.00359   0.00139   0.00193  -0.00879
  39        2PX        -0.01984   0.04282   0.06242   0.26409  -0.02182
  40        2PY        -0.02694  -0.01328   0.01161   0.00149  -0.00703
  41        2PZ        -0.04955   0.15059  -0.18452   0.00021  -0.12585
  42        3S         -0.03143  -0.01193  -0.00577  -0.00826   0.02746
  43        3PX        -0.02913   0.06197   0.08842   0.37507  -0.02526
  44        3PY        -0.03544  -0.01846   0.01639   0.00149  -0.00721
  45        3PZ        -0.07179   0.21977  -0.26224   0.00026  -0.16699
  46        4S         -0.02966  -0.00834   0.00320   0.01035   0.06702
  47        4PX        -0.02028   0.05562   0.08910   0.38434  -0.07338
  48        4PY        -0.03716  -0.01849   0.01309  -0.00495  -0.02198
  49        4PZ        -0.06320   0.18618  -0.27078   0.00202  -0.28604
  50        5D 0       -0.00113  -0.00174   0.00064  -0.00001  -0.00029
  51        5D+1       -0.00059  -0.00035   0.00029  -0.00088  -0.00080
  52        5D-1        0.00469  -0.01603   0.01085  -0.00035  -0.00614
  53        5D+2       -0.00111  -0.00080   0.00093  -0.00002  -0.00176
  54        5D-2        0.00320  -0.00393  -0.00308  -0.01361  -0.00127
  55 4   N  1S          0.00154   0.00261   0.01090   0.01496  -0.01744
  56        2S          0.00261   0.00427   0.01757   0.02364  -0.02827
  57        2PX         0.01128   0.01962   0.07259   0.03396  -0.02260
  58        2PY        -0.03537  -0.01275  -0.01769  -0.04109  -0.04815
  59        2PZ        -0.01242   0.06452   0.19092  -0.10154  -0.08002
  60        3S         -0.00977  -0.01401  -0.05307  -0.06217   0.08227
  61        3PX         0.01617   0.02898   0.09971   0.04105  -0.03132
  62        3PY        -0.04999  -0.01783  -0.02574  -0.05735  -0.05709
  63        3PZ        -0.01965   0.09710   0.27410  -0.14306  -0.11601
  64        4S         -0.00534  -0.00889  -0.09021  -0.23245   0.23864
  65        4PX         0.00801   0.03024   0.14922   0.04779  -0.07720
  66        4PY        -0.01609  -0.01039  -0.00976  -0.06695  -0.23123
  67        4PZ        -0.00827   0.08631   0.34463  -0.19474  -0.16806
  68        5D 0       -0.00322   0.00493   0.00191  -0.00370   0.00813
  69        5D+1        0.00616  -0.00932  -0.00485   0.00057  -0.01795
  70        5D-1       -0.00467   0.00243  -0.00145   0.00083   0.00691
  71        5D+2       -0.00876  -0.00589   0.00075   0.00329  -0.00072
  72        5D-2        0.00793   0.00439  -0.00131  -0.00157   0.00272
  73 5   C  1S         -0.00187   0.00257   0.00137   0.00229  -0.00660
  74        2S         -0.00299   0.00423   0.00224   0.00385  -0.01027
  75        2PX        -0.04542  -0.03900  -0.01931  -0.00580   0.01899
  76        2PY         0.12965   0.04787  -0.01577  -0.02466  -0.00116
  77        2PZ         0.04500  -0.07407  -0.04573   0.03146  -0.03279
  78        3S          0.00884  -0.01653  -0.00615  -0.01701   0.01825
  79        3PX        -0.06385  -0.05884  -0.03015  -0.00788   0.02456
  80        3PY         0.18483   0.06841  -0.02076  -0.03417   0.00663
  81        3PZ         0.06446  -0.11047  -0.06632   0.04154  -0.04049
  82        4S          0.00783  -0.00269  -0.06247   0.00724   0.34793
  83        4PX        -0.04633  -0.03069   0.00181  -0.05158  -0.02775
  84        4PY         0.13540   0.06893  -0.02758  -0.04768  -0.04146
  85        4PZ         0.03193  -0.06986  -0.06861   0.10849  -0.22147
  86        5D 0       -0.01345  -0.00502   0.00065  -0.00422  -0.00366
  87        5D+1        0.01027  -0.01100  -0.02392   0.01065   0.01622
  88        5D-1       -0.02158  -0.00480  -0.00320   0.00149   0.00241
  89        5D+2       -0.00798  -0.00890  -0.00764   0.00145   0.00464
  90        5D-2       -0.00419  -0.00436  -0.00100   0.00382   0.00511
  91 6   C  1S          0.00019   0.00869   0.01310  -0.00454  -0.02448
  92        2S          0.00033   0.01382   0.02089  -0.00728  -0.03858
  93        2PX         0.04107   0.06071   0.04738  -0.01192   0.00449
  94        2PY        -0.11746  -0.03892   0.01168   0.00183  -0.01399
  95        2PZ        -0.04366   0.05852   0.04720  -0.02469  -0.00076
  96        3S         -0.00168  -0.04093  -0.06162   0.02527   0.08463
  97        3PX         0.05821   0.09014   0.07056  -0.01758  -0.00245
  98        3PY        -0.16608  -0.05494   0.01623   0.00210  -0.01511
  99        3PZ        -0.06227   0.08715   0.06771  -0.03456  -0.01179
 100        4S          0.00850  -0.05816  -0.08086  -0.02712   0.72551
 101        4PX         0.03822   0.05607   0.03768   0.02700   0.07566
 102        4PY        -0.12230  -0.04635   0.00892   0.00611  -0.03463
 103        4PZ        -0.04984   0.05437   0.05872  -0.04243   0.03838
 104        5D 0       -0.01230  -0.00562  -0.00253   0.00031   0.00460
 105        5D+1        0.00922  -0.00503  -0.00415   0.00191  -0.00087
 106        5D-1       -0.02094  -0.00583   0.00091   0.00140  -0.00006
 107        5D+2       -0.00622  -0.00522   0.00213   0.00100  -0.00223
 108        5D-2       -0.00356  -0.00149   0.00355   0.00126  -0.00225
 109 7   H  1S          0.00453   0.00220  -0.01332  -0.03151  -0.00147
 110        2S          0.00895   0.00410  -0.03207  -0.06962   0.00837
 111        3S          0.00750   0.00221  -0.03414  -0.06562  -0.27588
 112        4PX         0.00210  -0.00097   0.00173   0.00560  -0.00269
 113        4PY        -0.00002   0.00059  -0.00118  -0.00198   0.00864
 114        4PZ         0.00129  -0.00598  -0.00121  -0.00159  -0.00100
 115 8   H  1S          0.01644  -0.08061  -0.00317  -0.00381  -0.04384
[...]
     5  C    0.009584  -0.053243  -0.000893   0.254065   4.849068   0.375930
     6  C   -0.001070  -0.004899  -0.003193  -0.052653   0.375930   4.868006
     7  H    0.374860  -0.037081   0.004427   0.006113  -0.000263   0.000130
     8  H    0.389830  -0.026246   0.002780   0.002587  -0.000265   0.000168
     9  H    0.390595  -0.026077   0.003586   0.002844  -0.000552  -0.000008
    10  H   -0.002649  -0.020403   0.004110   0.349266  -0.037168  -0.000313
    11  H    0.002767  -0.010826   0.026485  -0.035596   0.405170  -0.040109
    12  H   -0.000256   0.007025   0.000404  -0.029739   0.404438  -0.046368
    13  H    0.000018  -0.000039  -0.000214   0.006738  -0.032960   0.393946
    14  H    0.000135   0.004269   0.003012  -0.003905  -0.032171   0.401663
    15  H    0.000000  -0.000589  -0.000085   0.000761  -0.038221   0.397103
               7          8          9         10         11         12
     1  C    0.374860   0.389830   0.390595  -0.002649   0.002767  -0.000256
     2  C   -0.037081  -0.026246  -0.026077  -0.020403  -0.010826   0.007025
     3  O    0.004427   0.002780   0.003586   0.004110   0.026485   0.000404
     4  N    0.006113   0.002587   0.002844   0.349266  -0.035596  -0.029739
     5  C   -0.000263  -0.000265  -0.000552  -0.037168   0.405170   0.404438
     6  C    0.000130   0.000168  -0.000008  -0.000313  -0.040109  -0.046368
     7  H    0.607771  -0.024432  -0.024372  -0.000100  -0.000405  -0.000075
     8  H   -0.024432   0.539527  -0.019613  -0.000270  -0.000117  -0.000009
     9  H   -0.024372  -0.019613   0.535958  -0.000022  -0.000041   0.000061
    10  H   -0.000100  -0.000270  -0.000022   0.488601   0.007778  -0.006667
    11  H   -0.000405  -0.000117  -0.000041   0.007778   0.534608  -0.028876
    12  H   -0.000075  -0.000009   0.000061  -0.006667  -0.028876   0.587405
    13  H    0.000003  -0.000009   0.000002  -0.000280  -0.002214  -0.002630
    14  H   -0.000079  -0.000050   0.000010  -0.000462  -0.006124   0.008183
    15  H    0.000000  -0.000019   0.000007   0.003837   0.007757  -0.006421
              13         14         15
     1  C    0.000018   0.000135   0.000000
     2  C   -0.000039   0.004269  -0.000589
     3  O   -0.000214   0.003012  -0.000085
     4  N    0.006738  -0.003905   0.000761
     5  C   -0.032960  -0.032171  -0.038221
     6  C    0.393946   0.401663   0.397103
     7  H    0.000003  -0.000079   0.000000
     8  H   -0.000009  -0.000050  -0.000019
     9  H    0.000002   0.000010   0.000007
    10  H   -0.000280  -0.000462   0.003837
    11  H   -0.002214  -0.006124   0.007757
    12  H   -0.002630   0.008183  -0.006421
    13  H    0.581965  -0.025036  -0.027086
    14  H   -0.025036   0.559572  -0.031705
    15  H   -0.027086  -0.031705   0.601287
 Mulliken charges:
               1
     1  C   -0.303228
     2  C    0.320895
     3  O   -0.385320
     4  N   -0.400621
     5  C   -0.102519
     6  C   -0.288332
     7  H    0.093502
     8  H    0.136137
     9  H    0.137622
    10  H    0.214741
    11  H    0.139743
    12  H    0.113525
    13  H    0.107796
    14  H    0.122687
    15  H    0.093372
 Sum of Mulliken charges =   0.00000
 Mulliken charges with hydrogens summed into heavy atoms:
               1
     1  C    0.064033
     2  C    0.320895
     3  O   -0.385320
     4  N   -0.185880
     5  C    0.150749
     6  C    0.035524
 Atomic Valencies and Mayer Atomic Bond Orders:
               1          2          3          4          5          6
     1  C    3.859727   0.959170   0.002989  -0.005571   0.011591   0.000492
     2  C    0.959170   4.040623   1.932137   1.165360  -0.017247   0.005041
     3  O    0.002989   1.932137   2.137028   0.074953   0.014392  -0.000665
     4  N   -0.005571   1.165360   0.074953   3.115975   0.935523  -0.013158
     5  C    0.011591  -0.017247   0.014392   0.935523   3.850893   1.001942
     6  C    0.000492   0.005041  -0.000665  -0.013158   1.001942   3.889430
     7  H    0.968089  -0.007859   0.015389   0.002475   0.000245   0.000048
     8  H    0.959547  -0.002167   0.009680   0.010148   0.001170   0.000653
     9  H    0.959944  -0.001787   0.010651   0.010122   0.001369   0.000121
    10  H   -0.000253   0.001333   0.019620   0.926721  -0.003133   0.000797
    11  H    0.002702  -0.006371   0.048249  -0.001250   0.948724  -0.009673
    12  H    0.000735   0.008147   0.002357  -0.004079   0.967732  -0.012472
    13  H    0.000242   0.001606   0.001040   0.009359  -0.001393   0.969923
    14  H    0.000067   0.003083   0.005402   0.000614  -0.005515   0.972103
    15  H   -0.000018   0.000178   0.000832   0.004759  -0.004507   0.974279
               7          8          9         10         11         12
     1  C    0.968089   0.959547   0.959944  -0.000253   0.002702   0.000735
     2  C   -0.007859  -0.002167  -0.001787   0.001333  -0.006371   0.008147
     3  O    0.015389   0.009680   0.010651   0.019620   0.048249   0.002357
     4  N    0.002475   0.010148   0.010122   0.926721  -0.001250  -0.004079
     5  C    0.000245   0.001170   0.001369  -0.003133   0.948724   0.967732
     6  C    0.000048   0.000653   0.000121   0.000797  -0.009673  -0.012472
     7  H    0.967206  -0.007025  -0.006952   0.002070   0.000527   0.000125
     8  H   -0.007025   0.968313  -0.004236   0.000078   0.000074   0.000037
     9  H   -0.006952  -0.004236   0.970181   0.000201   0.000031   0.000540
    10  H    0.002070   0.000078   0.000201   0.960701   0.012086  -0.001538
    11  H    0.000527   0.000074   0.000031   0.012086   0.991266  -0.010905
    12  H    0.000125   0.000037   0.000540  -0.001538  -0.010905   0.958245
    13  H    0.000018   0.000291   0.000018   0.000320  -0.000699  -0.001115
    14  H    0.000058   0.000056   0.000124  -0.000021  -0.002051   0.010083
    15  H   -0.000001   0.000009   0.000036   0.002420   0.009822  -0.001402
              13         14         15
     1  C    0.000242   0.000067  -0.000018
     2  C    0.001606   0.003083   0.000178
     3  O    0.001040   0.005402   0.000832
     4  N    0.009359   0.000614   0.004759
     5  C   -0.001393  -0.005515  -0.004507
     6  C    0.969923   0.972103   0.974279
     7  H    0.000018   0.000058  -0.000001
     8  H    0.000291   0.000056   0.000009
     9  H    0.000018   0.000124   0.000036
    10  H    0.000320  -0.000021   0.002420
    11  H   -0.000699  -0.002051   0.009822
    12  H   -0.001115   0.010083  -0.001402
    13  H    0.964782  -0.006965  -0.007865
    14  H   -0.006965   0.967992  -0.009046
    15  H   -0.007865  -0.009046   0.969497
 Lowdin Atomic Charges:
               1
     1  C   -0.028837
     2  C   -0.062126
     3  O   -0.141600
     4  N    0.083877
     5  C    0.028050
     6  C   -0.014929
     7  H    0.002539
     8  H    0.027457
     9  H    0.028214
    10  H    0.034778
    11  H    0.014375
    12  H    0.003554
    13  H    0.011115
    14  H    0.012910
    15  H    0.000623
 Sum of Lowdin charges  =   0.00000
 Lowdin atomic charges with hydrogens summed into heavy atoms:
               1
     1  C    0.029373
     2  C   -0.062126
     3  O   -0.141600
     4  N    0.118655
     5  C    0.045980
     6  C    0.009719
     7  H    0.000000
     8  H    0.000000
     9  H    0.000000
    10  H    0.000000
    11  H    0.000000
    12  H    0.000000
    13  H    0.000000
    14  H    0.000000
    15  H    0.000000
 Sum of Lowdin charges  =   0.00000
 Dipole moment from Lowdin charges (Debye):
    X=     0.9558    Y=    -1.4172    Z=    -0.2143  Tot=     1.7228
 Electronic spatial extent (au):  <R**2>=            718.5654
 Charge=              0.0000 electrons
 Dipole moment (field-independent basis, Debye):
    X=              0.8490    Y=             -3.5243    Z=             -0.1532  Tot=              3.6283
 Quadrupole moment (field-independent basis, Debye-Ang):
   XX=            -34.8958   YY=            -39.9024   ZZ=            -37.7431
   XY=              3.0548   XZ=             -0.9639   YZ=              0.0954
 Traceless Quadrupole moment (field-independent basis, Debye-Ang):
   XX=              2.6180   YY=             -2.3887   ZZ=             -0.2293
   XY=              3.0548   XZ=             -0.9639   YZ=              0.0954
 Octapole moment (field-independent basis, Debye-Ang**2):
  XXX=             -6.1711  YYY=             -9.7047  ZZZ=              0.0552  XYY=              4.3821
  XXY=             -0.5028  XXZ=             -2.0463  XZZ=             -2.0134  YZZ=              2.0112
  YYZ=             -1.5575  XYZ=              0.4828
 Hexadecapole moment (field-independent basis, Debye-Ang**3):
 XXXX=           -682.0022 YYYY=           -161.0827 ZZZZ=           -104.0003 XXXY=             -0.0850
 XXXZ=             -3.7443 YYYX=              2.5823 YYYZ=              1.3980 ZZZX=             -5.1342
 ZZZY=              1.6674 XXYY=           -149.7115 XXZZ=           -131.4939 YYZZ=            -44.7552
 XXYZ=              0.0629 YYXZ=             -0.1922 ZZXY=             -2.4729
 N-N= 2.425367209213D+02 E-N=-1.156873407845D+03  KE= 2.867218192086D+02
 Orbital energies and kinetic energies (alpha):
                                 1                 2
   1         O               -19.072887         29.128378
   2         O               -14.334421         22.050130
   3         O               -10.267835         15.961631
   4         O               -10.206318         15.960428
   5         O               -10.176105         15.956056
   6         O               -10.166616         15.957012
   7         O                -1.028927          2.485911
   8         O                -0.920949          2.093760
   9         O                -0.769562          1.457534
  10         O                -0.725729          1.440665
  11         O                -0.636614          1.453049
  12         O                -0.584680          1.590834
  13         O                -0.505890          1.312367
  14         O                -0.472434          1.531800
  15         O                -0.452212          1.155509
  16         O                -0.437892          1.078223
  17         O                -0.419405          1.130890
  18         O                -0.400637          1.492648
  19         O                -0.398477          1.779366
  20         O                -0.375970          1.300475
  21         O                -0.355822          1.164842
  22         O                -0.351499          1.541758
  23         O                -0.256697          2.039882
  24         O                -0.249346          2.297762
  25         V                 0.022001          1.387221
  26         V                 0.029443          1.133629
  27         V                 0.058330          0.726488
  28         V                 0.073520          0.680309
  29         V                 0.087541          0.652622
  30         V                 0.106168          0.650884
  31         V                 0.117629          0.722728
  32         V                 0.124823          0.854474
  33         V                 0.128550          0.901978
  34         V                 0.136653          0.735375
  35         V                 0.180087          1.621745
  36         V                 0.205983          1.162553
  37         V                 0.228691          1.435226
  38         V                 0.271795          1.371038
  39         V                 0.288123          0.925465
  40         V                 0.295810          0.900088
  41         V                 0.303456          0.982992
  42         V                 0.318170          1.131552
  43         V                 0.343014          1.141343
  44         V                 0.356381          1.271124
  45         V                 0.405863          1.742439
  46         V                 0.419302          2.100429
  47         V                 0.430579          1.528745
  48         V                 0.480985          1.588604
  49         V                 0.509377          2.218045
  50         V                 0.529533          1.957518
  51         V                 0.549114          1.767385
  52         V                 0.561823          2.019761
  53         V                 0.565812          1.877688
  54         V                 0.573318          1.792018
  55         V                 0.579879          1.873297
  56         V                 0.588276          1.773739
  57         V                 0.594095          1.965018
  58         V                 0.607573          1.809976
  59         V                 0.620031          2.776905
  60         V                 0.650478          1.988050
  61         V                 0.679701          2.067194
  62         V                 0.708861          2.118070
  63         V                 0.715044          2.030600
  64         V                 0.747765          2.040175
  65         V                 0.796509          2.207140
  66         V                 0.847979          1.958043
  67         V                 0.897475          2.298578
  68         V                 0.944588          2.218154
  69         V                 0.981872          1.975106
  70         V                 1.002644          2.259095
  71         V                 1.027475          2.177118
  72         V                 1.031234          1.976871
  73         V                 1.124664          2.602239
  74         V                 1.224074          2.126576
  75         V                 1.251166          2.197269
  76         V                 1.268826          2.207381
  77         V                 1.307325          2.191170
  78         V                 1.325892          2.413610
  79         V                 1.410693          2.313158
  80         V                 1.439854          2.102998
  81         V                 1.451799          2.138197
  82         V                 1.460090          2.419979
  83         V                 1.465654          2.424812
  84         V                 1.473226          2.508353
  85         V                 1.492066          2.455970
  86         V                 1.494041          2.545126
  87         V                 1.500830          2.583128
  88         V                 1.537012          2.471458
  89         V                 1.569164          3.002015
  90         V                 1.597931          2.807694
  91         V                 1.624250          2.610050
  92         V                 1.660667          2.673711
  93         V                 1.670102          3.070290
  94         V                 1.695735          2.660540
  95         V                 1.722888          3.074140
  96         V                 1.749365          2.731048
  97         V                 1.774744          3.017107
  98         V                 1.800801          3.080236
  99         V                 1.808273          2.999545
 100         V                 1.875552          2.993461
 101         V                 1.888207          3.311357
 102         V                 1.919055          3.502723
 103         V                 1.989402          3.203257
 104         V                 2.011653          3.302924
 105         V                 2.048077          3.528476
 106         V                 2.097732          3.612221
 107         V                 2.113657          3.362243
 108         V                 2.174396          3.561616
 109         V                 2.237301          3.548667
 110         V                 2.248316          3.898294
 111         V                 2.289954          3.871321
 112         V                 2.346385          4.167231
 113         V                 2.360458          4.178506
 114         V                 2.367710          3.763889
 115         V                 2.394554          3.894983
 116         V                 2.431250          3.795991
 117         V                 2.442636          3.604022
 118         V                 2.462863          4.423146
 119         V                 2.470146          4.172392
 120         V                 2.482213          4.166245
 121         V                 2.488283          4.818252
 122         V                 2.513150          3.987643
 123         V                 2.522137          4.666293
 124         V                 2.557990          4.241828
 125         V                 2.579719          4.508989
 126         V                 2.633302          4.366760
 127         V                 2.652205          4.399625
 128         V                 2.707009          4.599439
 129         V                 2.747801          4.770937
 130         V                 2.792412          5.060568
 131         V                 2.822513          4.664905
 132         V                 2.842430          4.799575
 133         V                 2.878451          4.719193
 134         V                 2.926199          5.057656
 135         V                 2.937549          4.654766
 136         V                 3.053651          6.224543
 137         V                 3.152027          5.752985
 138         V                 3.168643          5.608980
 139         V                 3.348101          5.226510
 140         V                 3.355987          6.777485
 141         V                 3.513937          6.381092
 142         V                 3.583421          5.938340
 143         V                 3.746525          6.910056
 144         V                 3.768338          6.767075
 145         V                 3.779114          6.391993
 146         V                 3.787968          6.468434
 147         V                 3.794650          6.310772
 148         V                 3.818946          7.171662
 149         V                 3.865316          7.430804
 150         V                 4.112794          7.486986
 151         V                 4.198833          7.405712
 152         V                 4.822077          9.304562
 153         V                 4.929975         11.702756
 154         V                 4.941973          9.775527
 155         V                 5.084934         11.568742
 156         V                 5.658204         11.811933
 157         V                23.794638         60.290948
 158         V                23.823251         60.282778
 159         V                23.908006         60.349431
 160         V                23.914656         60.352226
 161         V                35.569877         89.004842
 162         V                50.004094        123.697610
 Total kinetic energy from orbitals= 2.867218192086D+02

 Test job not archived.
 1\1\GINC-KADET27\SP\RB3LYP\6-311G(d,p)\C4H9N1O1\MDOROHUN\15-Apr-2026\0
 \\# B3LYP/6-311G(d,p) GFInput Pop=Full IOP(6/80=1)\\ch3ch2_nhco_ch3 za
 mkniętopowłokowa cząsteczka\\0,1\C,0,4.56998,-2.998032,4.890038\C,0
 ,3.309051,-3.757882,4.49975\O,0,3.244069,-4.411106,3.465452\N,0,2.2607
 29,-3.645557,5.373429\C,0,1.009968,-4.37005,5.187511\C,0,0.942438,-5.6
 76009,5.984637\H,0,4.475289,-2.423919,5.817517\H,0,5.393414,-3.71128,4
 .996722\H,0,4.834253,-2.316063,4.076283\H,0,2.408196,-3.16191,6.247676
 \H,0,0.933785,-4.575924,4.117488\H,0,0.180714,-3.707435,5.463847\H,0,-
 0.017519,-6.178215,5.816863\H,0,1.743839,-6.354056,5.67438\H,0,1.04321
 5,-5.494066,7.061563\\Version=ES64L-G09RevD.01\State=1-A\HF=-287.92592
 53\RMSD=7.692e-09\Dipole=-0.2469457,0.5690386,1.2856724\Quadrupole=2.1
 08136,0.5113632,-2.6194992,1.4931962,1.0685574,-0.0867244\PG=C01 [X(C4
 H9N1O1)]\\@


 The theorems and results in mathematical physics are
 not theorems and results about Nature, but about our
 description of it.
                   --Gerard 't Hooft
 Job cpu time:       0 days  0 hours  0 minutes 12.7 seconds.
 File lengths (MBytes):  RWF=     16 Int=      0 D2E=      0 Chk=      2 Scr=      1
 Normal termination of Gaussian 09 at Wed Apr 15 13:17:14 2026.
