 Entering Gaussian System, Link 0=/opt/g09/g09/g09
 Input=ch3ch2_conh_ch3.inp
 Output=ch3ch2_conh_ch3.log
 Initial command:
 /opt/g09/g09/l1.exe "/tmp/Gau-5502.inp" -scrdir="/tmp/"
 Entering Link 1 = /opt/g09/g09/l1.exe PID=      5504.
  
 Copyright (c) 1988,1990,1992,1993,1995,1998,2003,2009,2013,
            Gaussian, Inc.  All Rights Reserved.
  
 This is part of the Gaussian(R) 09 program.  It is based on
 the Gaussian(R) 03 system (copyright 2003, Gaussian, Inc.),
 the Gaussian(R) 98 system (copyright 1998, Gaussian, Inc.),
 the Gaussian(R) 94 system (copyright 1995, Gaussian, Inc.),
 the Gaussian 92(TM) system (copyright 1992, Gaussian, Inc.),
 the Gaussian 90(TM) system (copyright 1990, Gaussian, Inc.),
 the Gaussian 88(TM) system (copyright 1988, Gaussian, Inc.),
 the Gaussian 86(TM) system (copyright 1986, Carnegie Mellon
 University), and the Gaussian 82(TM) system (copyright 1983,
 Carnegie Mellon University). Gaussian is a federally registered
 trademark of Gaussian, Inc.
  
 This software contains proprietary and confidential information,
 including trade secrets, belonging to Gaussian, Inc.
  
 This software is provided under written license and may be
 used, copied, transmitted, or stored only in accord with that
 written license.
  
 The following legend is applicable only to US Government
 contracts under FAR:
  
                    RESTRICTED RIGHTS LEGEND
  
 Use, reproduction and disclosure by the US Government is
 subject to restrictions as set forth in subparagraphs (a)
 and (c) of the Commercial Computer Software - Restricted
 Rights clause in FAR 52.227-19.
  
 Gaussian, Inc.
 340 Quinnipiac St., Bldg. 40, Wallingford CT 06492
  
  
 ---------------------------------------------------------------
 Warning -- This program may not be used in any manner that
 competes with the business of Gaussian, Inc. or will provide
 assistance to any competitor of Gaussian, Inc.  The licensee
 of this program is prohibited from giving any competitor of
 Gaussian, Inc. access to this program.  By using this program,
 the user acknowledges that Gaussian, Inc. is engaged in the
 business of creating and licensing software in the field of
 computational chemistry and represents and warrants to the
 licensee that it is not a competitor of Gaussian, Inc. and that
 it will not use this program in any manner prohibited above.
 ---------------------------------------------------------------
  

 Cite this work as:
 Gaussian 09, Revision D.01,
 M. J. Frisch, G. W. Trucks, H. B. Schlegel, G. E. Scuseria, 
 M. A. Robb, J. R. Cheeseman, G. Scalmani, V. Barone, B. Mennucci, 
 G. A. Petersson, H. Nakatsuji, M. Caricato, X. Li, H. P. Hratchian, 
 A. F. Izmaylov, J. Bloino, G. Zheng, J. L. Sonnenberg, M. Hada, 
 M. Ehara, K. Toyota, R. Fukuda, J. Hasegawa, M. Ishida, T. Nakajima, 
 Y. Honda, O. Kitao, H. Nakai, T. Vreven, J. A. Montgomery, Jr., 
 J. E. Peralta, F. Ogliaro, M. Bearpark, J. J. Heyd, E. Brothers, 
 K. N. Kudin, V. N. Staroverov, T. Keith, R. Kobayashi, J. Normand, 
 K. Raghavachari, A. Rendell, J. C. Burant, S. S. Iyengar, J. Tomasi, 
 M. Cossi, N. Rega, J. M. Millam, M. Klene, J. E. Knox, J. B. Cross, 
 V. Bakken, C. Adamo, J. Jaramillo, R. Gomperts, R. E. Stratmann, 
 O. Yazyev, A. J. Austin, R. Cammi, C. Pomelli, J. W. Ochterski, 
 R. L. Martin, K. Morokuma, V. G. Zakrzewski, G. A. Voth, 
 P. Salvador, J. J. Dannenberg, S. Dapprich, A. D. Daniels, 
 O. Farkas, J. B. Foresman, J. V. Ortiz, J. Cioslowski, 
 and D. J. Fox, Gaussian, Inc., Wallingford CT, 2013.
 
 ******************************************
 Gaussian 09:  ES64L-G09RevD.01 24-Apr-2013
                15-Apr-2026 
 ******************************************
 ------------------------------------------------
 # B3LYP/6-311G(d,p) GFInput Pop=Full IOP(6/80=1)
 ------------------------------------------------
 1/38=1/1;
 2/12=2,17=6,18=5,40=1/2;
 3/5=4,6=6,7=101,11=2,16=1,24=10,25=1,30=1,74=-5/1,2,3;
 4//1;
 5/5=2,38=5/2;
 6/7=3,28=1,80=1/1;
 99/5=1,9=1/99;
 ------------------------------------------------
 ch3ch2_conh_ch3 zamkniętopowłokowa cząsteczka
 ------------------------------------------------
 Symbolic Z-matrix:
 Charge =  0 Multiplicity = 1
 C                     4.61325  -2.9826    4.86856 
 N                     3.37622  -3.51113   4.32385 
 C                     2.6487   -2.85668   3.36679 
 O                     3.00225  -1.7907    2.87597 
 C                     1.33879  -3.54022   2.97078 
 H                     5.44373  -3.68291   4.71916 
 H                     4.82805  -2.05457   4.33689 
 H                     4.52117  -2.76846   5.94061 
 H                     3.022    -4.38443   4.68558 
 H                     0.54389  -3.08752   3.58009 
 H                     1.36161  -4.60649   3.23152 
 C                     1.02079  -3.34836   1.486 
 H                     0.02834  -3.74376   1.24577 
 H                     1.05058  -2.28572   1.23288 
 H                     1.75475  -3.86212   0.85551 
 
                          Input orientation:                          
 ---------------------------------------------------------------------
 Center     Atomic      Atomic             Coordinates (Angstroms)
 Number     Number       Type             X           Y           Z
 ---------------------------------------------------------------------
      1          6           0        4.613246   -2.982599    4.868557
      2          7           0        3.376222   -3.511133    4.323850
      3          6           0        2.648700   -2.856681    3.366794
      4          8           0        3.002249   -1.790702    2.875971
      5          6           0        1.338792   -3.540218    2.970775
      6          1           0        5.443731   -3.682907    4.719157
      7          1           0        4.828047   -2.054565    4.336886
      8          1           0        4.521166   -2.768458    5.940614
      9          1           0        3.022004   -4.384429    4.685583
     10          1           0        0.543888   -3.087523    3.580091
     11          1           0        1.361613   -4.606489    3.231516
     12          6           0        1.020788   -3.348363    1.485995
     13          1           0        0.028335   -3.743763    1.245772
     14          1           0        1.050581   -2.285718    1.232882
     15          1           0        1.754754   -3.862123    0.855505
 ---------------------------------------------------------------------
                    Distance matrix (angstroms):
                    1          2          3          4          5
     1  C    0.000000
     2  N    1.451304   0.000000
     3  C    2.476003   1.368778   0.000000
     4  O    2.826009   2.279494   1.225649   0.000000
     5  C    3.825515   2.445972   1.529677   2.415964   0.000000
     6  H    1.096566   2.111958   3.213057   3.597028   4.464048
     7  H    1.090899   2.056588   2.516748   2.353175   4.030921
     8  H    1.097106   2.115748   3.184095   3.557408   4.420753
     9  H    2.128534   1.009439   2.052456   3.162674   2.546853
    10  H    4.269757   2.958841   2.128149   2.867241   1.099123
    11  H    3.986231   2.540009   2.176401   3.278224   1.097926
    12  C    4.947854   3.691610   2.535597   2.878286   1.530525
    13  H    5.892822   4.553793   3.485966   3.913587   2.175859
    14  H    5.137739   4.057626   2.726456   2.598806   2.162662
    15  H    5.004910   3.844707   2.848969   3.151081   2.179682
                    6          7          8          9         10
     6  H    0.000000
     7  H    1.782329   0.000000
     8  H    1.783059   1.782067   0.000000
     9  H    2.521512   2.968442   2.536524   0.000000
    10  H    5.065611   4.471438   4.636012   3.007513   0.000000
    11  H    4.441820   4.444134   4.549763   2.218224   1.759954
    12  C    5.488869   4.929170   5.694960   3.913523   2.163495
    13  H    6.433865   5.953622   6.571019   4.604868   2.479010
    14  H    5.779794   4.894642   5.868623   4.495803   2.531604
    15  H    5.344949   4.983213   5.891305   4.067951   3.080515
                   11         12         13         14         15
    11  H    0.000000
    12  C    2.178506   0.000000
    13  H    2.542657   1.094994   0.000000
    14  H    3.078515   1.092780   1.780744   0.000000
    15  H    2.520728   1.095524   1.773933   1.767293   0.000000
 Stoichiometry    C4H9NO
 Framework group  C1[X(C4H9NO)]
 Deg. of freedom    39
 Full point group                 C1      NOp   1
 Largest Abelian subgroup         C1      NOp   1
 Largest concise Abelian subgroup C1      NOp   1
                         Standard orientation:                         
 ---------------------------------------------------------------------
 Center     Atomic      Atomic             Coordinates (Angstroms)
 Number     Number       Type             X           Y           Z
 ---------------------------------------------------------------------
      1          6           0       -2.484929   -0.041482    0.159818
      2          7           0       -1.161758   -0.625720    0.040787
      3          6           0       -0.032115    0.127436   -0.133033
      4          8           0       -0.048909    1.352390   -0.170722
      5          6           0        1.258841   -0.674441   -0.307217
      6          1           0       -2.962004   -0.328822    1.104430
      7          1           0       -2.361173    1.042132    0.136864
      8          1           0       -3.134708   -0.345712   -0.670166
      9          1           0       -1.072996   -1.631091    0.058597
     10          1           0        1.424244   -0.785059   -1.388177
     11          1           0        1.144156   -1.689403    0.095450
     12          6           0        2.459560    0.031639    0.327001
     13          1           0        3.389897   -0.497031    0.094637
     14          1           0        2.529978    1.055835   -0.047475
     15          1           0        2.358042    0.081157    1.416687
 ---------------------------------------------------------------------
 Rotational constants (GHZ):      8.6684053      2.0522679      1.7647367
 Standard basis: 6-311G(d,p) (5D, 7F)
 AO basis set in the form of general basis input (Overlap normalization):
      1 0
 S   6 1.00       0.000000000000
      0.4563240000D+04  0.1966650249D-02
      0.6820240000D+03  0.1523060193D-01
      0.1549730000D+03  0.7612690966D-01
      0.4445530000D+02  0.2608010331D+00
      0.1302900000D+02  0.6164620782D+00
      0.1827730000D+01  0.2210060280D+00
 SP   3 1.00       0.000000000000
      0.2096420000D+02  0.1146600807D+00  0.4024869267D-01
      0.4803310000D+01  0.9199996477D+00  0.2375939567D+00
      0.1459330000D+01 -0.3030682134D-02  0.8158538515D+00
 SP   1 1.00       0.000000000000
      0.4834560000D+00  0.1000000000D+01  0.1000000000D+01
 SP   1 1.00       0.000000000000
      0.1455850000D+00  0.1000000000D+01  0.1000000000D+01
 D   1 1.00       0.000000000000
      0.6260000000D+00  0.1000000000D+01
 ****
      2 0
 S   6 1.00       0.000000000000
      0.6293480000D+04  0.1969788147D-02
      0.9490440000D+03  0.1496128592D-01
      0.2187760000D+03  0.7350053084D-01
      0.6369160000D+02  0.2489367658D+00
      0.1882820000D+02  0.6024594331D+00
      0.2720230000D+01  0.2562017589D+00
 SP   3 1.00       0.000000000000
      0.3063310000D+02  0.1119060795D+00  0.3831191864D-01
      0.7026140000D+01  0.9216666549D+00  0.2374031155D+00
      0.2112050000D+01 -0.2569191826D-02  0.8175923978D+00
 SP   1 1.00       0.000000000000
      0.6840090000D+00  0.1000000000D+01  0.1000000000D+01
 SP   1 1.00       0.000000000000
      0.2008780000D+00  0.1000000000D+01  0.1000000000D+01
 D   1 1.00       0.000000000000
      0.9130000000D+00  0.1000000000D+01
 ****
      3 0
 S   6 1.00       0.000000000000
      0.4563240000D+04  0.1966650249D-02
      0.6820240000D+03  0.1523060193D-01
      0.1549730000D+03  0.7612690966D-01
      0.4445530000D+02  0.2608010331D+00
      0.1302900000D+02  0.6164620782D+00
      0.1827730000D+01  0.2210060280D+00
 SP   3 1.00       0.000000000000
      0.2096420000D+02  0.1146600807D+00  0.4024869267D-01
      0.4803310000D+01  0.9199996477D+00  0.2375939567D+00
      0.1459330000D+01 -0.3030682134D-02  0.8158538515D+00
 SP   1 1.00       0.000000000000
      0.4834560000D+00  0.1000000000D+01  0.1000000000D+01
 SP   1 1.00       0.000000000000
      0.1455850000D+00  0.1000000000D+01  0.1000000000D+01
 D   1 1.00       0.000000000000
      0.6260000000D+00  0.1000000000D+01
 ****
      4 0
 S   6 1.00       0.000000000000
      0.8588500000D+04  0.1895150083D-02
      0.1297230000D+04  0.1438590063D-01
      0.2992960000D+03  0.7073200310D-01
      0.8737710000D+02  0.2400010105D+00
      0.2567890000D+02  0.5947970261D+00
      0.3740040000D+01  0.2808020123D+00
 SP   3 1.00       0.000000000000
      0.4211750000D+02  0.1138890124D+00  0.3651139738D-01
      0.9628370000D+01  0.9208111006D+00  0.2371529830D+00
      0.2853320000D+01 -0.3274470358D-02  0.8197019412D+00
 SP   1 1.00       0.000000000000
      0.9056610000D+00  0.1000000000D+01  0.1000000000D+01
 SP   1 1.00       0.000000000000
      0.2556110000D+00  0.1000000000D+01  0.1000000000D+01
 D   1 1.00       0.000000000000
      0.1292000000D+01  0.1000000000D+01
 ****
      5 0
 S   6 1.00       0.000000000000
      0.4563240000D+04  0.1966650249D-02
      0.6820240000D+03  0.1523060193D-01
      0.1549730000D+03  0.7612690966D-01
      0.4445530000D+02  0.2608010331D+00
      0.1302900000D+02  0.6164620782D+00
      0.1827730000D+01  0.2210060280D+00
 SP   3 1.00       0.000000000000
      0.2096420000D+02  0.1146600807D+00  0.4024869267D-01
      0.4803310000D+01  0.9199996477D+00  0.2375939567D+00
      0.1459330000D+01 -0.3030682134D-02  0.8158538515D+00
 SP   1 1.00       0.000000000000
      0.4834560000D+00  0.1000000000D+01  0.1000000000D+01
 SP   1 1.00       0.000000000000
      0.1455850000D+00  0.1000000000D+01  0.1000000000D+01
 D   1 1.00       0.000000000000
      0.6260000000D+00  0.1000000000D+01
 ****
      6 0
 S   3 1.00       0.000000000000
      0.3386500000D+02  0.2549381454D-01
      0.5094790000D+01  0.1903731086D+00
      0.1158790000D+01  0.8521614860D+00
 S   1 1.00       0.000000000000
      0.3258400000D+00  0.1000000000D+01
 S   1 1.00       0.000000000000
      0.1027410000D+00  0.1000000000D+01
 P   1 1.00       0.000000000000
      0.7500000000D+00  0.1000000000D+01
 ****
      7 0
 S   3 1.00       0.000000000000
      0.3386500000D+02  0.2549381454D-01
      0.5094790000D+01  0.1903731086D+00
      0.1158790000D+01  0.8521614860D+00
 S   1 1.00       0.000000000000
      0.3258400000D+00  0.1000000000D+01
 S   1 1.00       0.000000000000
      0.1027410000D+00  0.1000000000D+01
 P   1 1.00       0.000000000000
      0.7500000000D+00  0.1000000000D+01
 ****
      8 0
 S   3 1.00       0.000000000000
      0.3386500000D+02  0.2549381454D-01
      0.5094790000D+01  0.1903731086D+00
      0.1158790000D+01  0.8521614860D+00
 S   1 1.00       0.000000000000
      0.3258400000D+00  0.1000000000D+01
 S   1 1.00       0.000000000000
      0.1027410000D+00  0.1000000000D+01
 P   1 1.00       0.000000000000
      0.7500000000D+00  0.1000000000D+01
 ****
      9 0
 S   3 1.00       0.000000000000
      0.3386500000D+02  0.2549381454D-01
      0.5094790000D+01  0.1903731086D+00
      0.1158790000D+01  0.8521614860D+00
 S   1 1.00       0.000000000000
      0.3258400000D+00  0.1000000000D+01
 S   1 1.00       0.000000000000
      0.1027410000D+00  0.1000000000D+01
 P   1 1.00       0.000000000000
      0.7500000000D+00  0.1000000000D+01
 ****
     10 0
 S   3 1.00       0.000000000000
      0.3386500000D+02  0.2549381454D-01
      0.5094790000D+01  0.1903731086D+00
      0.1158790000D+01  0.8521614860D+00
 S   1 1.00       0.000000000000
      0.3258400000D+00  0.1000000000D+01
 S   1 1.00       0.000000000000
      0.1027410000D+00  0.1000000000D+01
 P   1 1.00       0.000000000000
      0.7500000000D+00  0.1000000000D+01
 ****
     11 0
 S   3 1.00       0.000000000000
      0.3386500000D+02  0.2549381454D-01
      0.5094790000D+01  0.1903731086D+00
      0.1158790000D+01  0.8521614860D+00
 S   1 1.00       0.000000000000
      0.3258400000D+00  0.1000000000D+01
 S   1 1.00       0.000000000000
      0.1027410000D+00  0.1000000000D+01
 P   1 1.00       0.000000000000
      0.7500000000D+00  0.1000000000D+01
 ****
     12 0
 S   6 1.00       0.000000000000
      0.4563240000D+04  0.1966650249D-02
      0.6820240000D+03  0.1523060193D-01
      0.1549730000D+03  0.7612690966D-01
      0.4445530000D+02  0.2608010331D+00
      0.1302900000D+02  0.6164620782D+00
      0.1827730000D+01  0.2210060280D+00
 SP   3 1.00       0.000000000000
      0.2096420000D+02  0.1146600807D+00  0.4024869267D-01
      0.4803310000D+01  0.9199996477D+00  0.2375939567D+00
      0.1459330000D+01 -0.3030682134D-02  0.8158538515D+00
 SP   1 1.00       0.000000000000
      0.4834560000D+00  0.1000000000D+01  0.1000000000D+01
 SP   1 1.00       0.000000000000
      0.1455850000D+00  0.1000000000D+01  0.1000000000D+01
 D   1 1.00       0.000000000000
      0.6260000000D+00  0.1000000000D+01
 ****
     13 0
 S   3 1.00       0.000000000000
      0.3386500000D+02  0.2549381454D-01
      0.5094790000D+01  0.1903731086D+00
      0.1158790000D+01  0.8521614860D+00
 S   1 1.00       0.000000000000
      0.3258400000D+00  0.1000000000D+01
 S   1 1.00       0.000000000000
      0.1027410000D+00  0.1000000000D+01
 P   1 1.00       0.000000000000
      0.7500000000D+00  0.1000000000D+01
 ****
     14 0
 S   3 1.00       0.000000000000
      0.3386500000D+02  0.2549381454D-01
      0.5094790000D+01  0.1903731086D+00
      0.1158790000D+01  0.8521614860D+00
 S   1 1.00       0.000000000000
      0.3258400000D+00  0.1000000000D+01
 S   1 1.00       0.000000000000
      0.1027410000D+00  0.1000000000D+01
 P   1 1.00       0.000000000000
      0.7500000000D+00  0.1000000000D+01
 ****
     15 0
 S   3 1.00       0.000000000000
      0.3386500000D+02  0.2549381454D-01
      0.5094790000D+01  0.1903731086D+00
      0.1158790000D+01  0.8521614860D+00
 S   1 1.00       0.000000000000
      0.3258400000D+00  0.1000000000D+01
 S   1 1.00       0.000000000000
      0.1027410000D+00  0.1000000000D+01
 P   1 1.00       0.000000000000
      0.7500000000D+00  0.1000000000D+01
 ****

 There are   168 symmetry adapted cartesian basis functions of A   symmetry.
 There are   162 symmetry adapted basis functions of A   symmetry.
   162 basis functions,   264 primitive gaussians,   168 cartesian basis functions
    24 alpha electrons       24 beta electrons
       nuclear repulsion energy       242.8278101956 Hartrees.
 NAtoms=   15 NActive=   15 NUniq=   15 SFac= 1.00D+00 NAtFMM=   60 NAOKFM=F Big=F
 Integral buffers will be    131072 words long.
 Raffenetti 2 integral format.
 Two-electron integral symmetry is turned on.
 One-electron integrals computed using PRISM.
 NBasis=   162 RedAO= T EigKep=  1.86D-03  NBF=   162
 NBsUse=   162 1.00D-06 EigRej= -1.00D+00 NBFU=   162
 ExpMin= 1.03D-01 ExpMax= 8.59D+03 ExpMxC= 1.30D+03 IAcc=1 IRadAn=         1 AccDes= 0.00D+00
 Harris functional with IExCor=  402 and IRadAn=       1 diagonalized for initial guess.
 HarFok:  IExCor=  402 AccDes= 0.00D+00 IRadAn=         1 IDoV= 1 UseB2=F ITyADJ=14
 ICtDFT=  3500011 ScaDFX=  1.000000  1.000000  1.000000  1.000000
 FoFCou: FMM=F IPFlag=           0 FMFlag=      100000 FMFlg1=           0
         NFxFlg=           0 DoJE=T BraDBF=F KetDBF=T FulRan=T
         wScrn=  0.000000 ICntrl=     500 IOpCl=  0 I1Cent=   200000004 NGrid=           0
         NMat0=    1 NMatS0=      1 NMatT0=    0 NMatD0=    1 NMtDS0=    0 NMtDT0=    0
 Petite list used in FoFCou.
 Requested convergence on RMS density matrix=1.00D-08 within 128 cycles.
 Requested convergence on MAX density matrix=1.00D-06.
 Requested convergence on             energy=1.00D-06.
 No special actions if energy rises.
 Integral accuracy reduced to 1.0D-05 until final iterations.
 Initial convergence to 1.0D-05 achieved.  Increase integral accuracy.
 SCF Done:  E(RB3LYP) =  -287.923512992     A.U. after   13 cycles
            NFock= 13  Conv=0.10D-07     -V/T= 2.0042

 **********************************************************************

            Population analysis using the SCF density.

 **********************************************************************

 Orbital symmetries:
       Occupied  (A) (A) (A) (A) (A) (A) (A) (A) (A) (A) (A) (A)
                 (A) (A) (A) (A) (A) (A) (A) (A) (A) (A) (A) (A)
       Virtual   (A) (A) (A) (A) (A) (A) (A) (A) (A) (A) (A) (A)
                 (A) (A) (A) (A) (A) (A) (A) (A) (A) (A) (A) (A)
                 (A) (A) (A) (A) (A) (A) (A) (A) (A) (A) (A) (A)
                 (A) (A) (A) (A) (A) (A) (A) (A) (A) (A) (A) (A)
                 (A) (A) (A) (A) (A) (A) (A) (A) (A) (A) (A) (A)
                 (A) (A) (A) (A) (A) (A) (A) (A) (A) (A) (A) (A)
                 (A) (A) (A) (A) (A) (A) (A) (A) (A) (A) (A) (A)
                 (A) (A) (A) (A) (A) (A) (A) (A) (A) (A) (A) (A)
                 (A) (A) (A) (A) (A) (A) (A) (A) (A) (A) (A) (A)
                 (A) (A) (A) (A) (A) (A) (A) (A) (A) (A) (A) (A)
                 (A) (A) (A) (A) (A) (A) (A) (A) (A) (A) (A) (A)
                 (A) (A) (A) (A) (A) (A)
 The electronic state is 1-A.
 Alpha  occ. eigenvalues --  -19.07506 -14.33610 -10.26530 -10.20109 -10.18119
 Alpha  occ. eigenvalues --  -10.15988  -1.02974  -0.91990  -0.77893  -0.71024
 Alpha  occ. eigenvalues --   -0.63364  -0.58150  -0.50631  -0.47471  -0.46207
 Alpha  occ. eigenvalues --   -0.43959  -0.41949  -0.39221  -0.38883  -0.36525
 Alpha  occ. eigenvalues --   -0.36221  -0.34243  -0.25563  -0.25151
 Alpha virt. eigenvalues --    0.02351   0.02893   0.06167   0.07095   0.09179
 Alpha virt. eigenvalues --    0.10977   0.11512   0.12073   0.13367   0.14799
 Alpha virt. eigenvalues --    0.17462   0.21690   0.23121   0.26926   0.28904
 Alpha virt. eigenvalues --    0.29715   0.30071   0.32591   0.34746   0.36596
 Alpha virt. eigenvalues --    0.38371   0.42276   0.45565   0.50056   0.50789
 Alpha virt. eigenvalues --    0.53473   0.55626   0.55989   0.57276   0.57955
 Alpha virt. eigenvalues --    0.58507   0.59203   0.60008   0.61113   0.62705
 Alpha virt. eigenvalues --    0.63319   0.67111   0.69213   0.71624   0.76040
 Alpha virt. eigenvalues --    0.78366   0.84328   0.93993   0.95549   0.98130
 Alpha virt. eigenvalues --    1.02418   1.03738   1.04943   1.10613   1.20789
 Alpha virt. eigenvalues --    1.25430   1.27515   1.30400   1.34612   1.42192
 Alpha virt. eigenvalues --    1.44118   1.44608   1.46448   1.47034   1.47829
 Alpha virt. eigenvalues --    1.48796   1.49389   1.53395   1.54815   1.57525
 Alpha virt. eigenvalues --    1.59907   1.63233   1.66041   1.67971   1.70835
 Alpha virt. eigenvalues --    1.71356   1.72230   1.75263   1.78383   1.82746
 Alpha virt. eigenvalues --    1.88267   1.89715   1.95137   2.00926   2.02932
 Alpha virt. eigenvalues --    2.03935   2.06906   2.10554   2.17480   2.20517
 Alpha virt. eigenvalues --    2.26606   2.29183   2.33012   2.33290   2.34716
 Alpha virt. eigenvalues --    2.39323   2.41690   2.43571   2.46379   2.47510
 Alpha virt. eigenvalues --    2.49528   2.50823   2.53805   2.57006   2.59947
 Alpha virt. eigenvalues --    2.61788   2.64092   2.65076   2.70723   2.75378
 Alpha virt. eigenvalues --    2.77733   2.81939   2.83228   2.87528   2.93356
 Alpha virt. eigenvalues --    2.93961   3.01277   3.10832   3.26186   3.34600
 Alpha virt. eigenvalues --    3.35057   3.51125   3.58342   3.69797   3.73440
 Alpha virt. eigenvalues --    3.77325   3.79315   3.81951   3.85336   3.87126
 Alpha virt. eigenvalues --    4.07591   4.23764   4.81590   4.93730   4.94463
 Alpha virt. eigenvalues --    5.09470   5.66359  23.79107  23.84239  23.87921
 Alpha virt. eigenvalues --   23.93156  35.56781  50.01028
     Molecular Orbital Coefficients:
                           1         2         3         4         5
                           O         O         O         O         O
     Eigenvalues --   -19.07506 -14.33610 -10.26530 -10.20109 -10.18119
   1 1   C  1S          0.00000   0.00002   0.00000   0.56301   0.00002
   2        2S          0.00000  -0.00005  -0.00002   0.46325   0.00003
   3        2PX        -0.00002   0.00027  -0.00007   0.00071   0.00001
   4        2PY         0.00004  -0.00018  -0.00002  -0.00052   0.00001
   5        2PZ         0.00000  -0.00002   0.00001  -0.00006   0.00000
   6        3S          0.00018   0.00041   0.00021   0.01839  -0.00021
   7        3PX         0.00019  -0.00045   0.00040  -0.00153  -0.00006
   8        3PY        -0.00023   0.00041   0.00003   0.00123  -0.00009
   9        3PZ         0.00000   0.00002  -0.00004   0.00015   0.00000
  10        4S          0.00132   0.00432   0.00109  -0.00378   0.00205
  11        4PX         0.00018   0.00121   0.00046  -0.00005   0.00084
  12        4PY        -0.00017   0.00008   0.00105  -0.00013  -0.00018
  13        4PZ         0.00005  -0.00013  -0.00011   0.00007  -0.00020
  14        5D 0        0.00006   0.00043  -0.00004   0.00040   0.00001
  15        5D+1        0.00001   0.00008  -0.00002   0.00010   0.00000
  16        5D-1        0.00000  -0.00004   0.00000  -0.00007   0.00001
  17        5D+2        0.00003  -0.00021   0.00012  -0.00044   0.00001
  18        5D-2        0.00000   0.00056   0.00013   0.00069   0.00002
  19 2   N  1S          0.00000   0.55736  -0.00005  -0.00003   0.00000
  20        2S          0.00005   0.46568  -0.00004  -0.00009   0.00004
  21        2PX         0.00009  -0.00020   0.00043  -0.00024   0.00010
  22        2PY         0.00009  -0.00010   0.00022   0.00010   0.00001
  23        2PZ        -0.00002  -0.00001  -0.00005   0.00002   0.00001
  24        3S         -0.00046   0.01605   0.00064   0.00074  -0.00024
  25        3PX        -0.00050   0.00064  -0.00121   0.00021  -0.00051
  26        3PY        -0.00040  -0.00020  -0.00053  -0.00005  -0.00009
  27        3PZ         0.00009  -0.00010   0.00013  -0.00001  -0.00001
  28        4S          0.00368  -0.01163  -0.00257  -0.00135   0.00022
  29        4PX         0.00316  -0.00047  -0.00018   0.00110   0.00132
  30        4PY        -0.00157  -0.00434  -0.00439  -0.00236   0.00012
  31        4PZ        -0.00037   0.00026   0.00028  -0.00007   0.00001
  32        5D 0       -0.00008  -0.00074   0.00052   0.00019   0.00002
  33        5D+1       -0.00001  -0.00012   0.00022   0.00006   0.00002
  34        5D-1        0.00003  -0.00007   0.00010  -0.00003   0.00001
  35        5D+2       -0.00001  -0.00039  -0.00056  -0.00031  -0.00011
  36        5D-2       -0.00021   0.00014  -0.00069   0.00029  -0.00011
  37 3   C  1S         -0.00002   0.00000   0.56300   0.00000  -0.00073
  38        2S          0.00007   0.00007   0.46347  -0.00001  -0.00058
  39        2PX         0.00000  -0.00041  -0.00045  -0.00001   0.00044
  40        2PY         0.00038  -0.00035  -0.00012   0.00000  -0.00030
  41        2PZ         0.00000   0.00006   0.00005   0.00000  -0.00007
  42        3S          0.00068   0.00025   0.01702   0.00017  -0.00015
  43        3PX         0.00006   0.00118  -0.00011   0.00019  -0.00106
  44        3PY        -0.00099   0.00108   0.00135  -0.00005   0.00083
  45        3PZ        -0.00004  -0.00015  -0.00002  -0.00001   0.00017
  46        4S         -0.00037   0.00291  -0.00413  -0.00135   0.00406
  47        4PX         0.00007  -0.00587  -0.00623  -0.00365   0.00418
  48        4PY         0.00929  -0.00171   0.00534   0.00171  -0.00050
  49        4PZ        -0.00038   0.00091   0.00062   0.00043  -0.00050
  50        5D 0        0.00028   0.00023  -0.00164  -0.00002   0.00011
  51        5D+1       -0.00009   0.00015  -0.00029  -0.00001   0.00009
  52        5D-1        0.00007   0.00013  -0.00017   0.00001  -0.00015
  53        5D+2        0.00100  -0.00031  -0.00101   0.00010  -0.00034
  54        5D-2       -0.00003  -0.00104   0.00031  -0.00005   0.00071
  55 4   O  1S          0.55130   0.00001  -0.00009   0.00000   0.00000
  56        2S          0.46972   0.00005  -0.00008   0.00000   0.00003
  57        2PX        -0.00004  -0.00001   0.00005  -0.00002   0.00001
  58        2PY        -0.00118  -0.00007  -0.00054  -0.00003  -0.00006
  59        2PZ         0.00005   0.00000   0.00000   0.00000  -0.00001
  60        3S          0.01394  -0.00033   0.00071   0.00006  -0.00014
  61        3PX         0.00005   0.00002  -0.00019   0.00005  -0.00004
  62        3PY        -0.00081   0.00038   0.00169   0.00010   0.00034
  63        3PZ        -0.00001   0.00000   0.00000  -0.00001   0.00004
  64        4S         -0.01175   0.00013  -0.00670  -0.00079  -0.00071
  65        4PX        -0.00012   0.00100   0.00097   0.00047  -0.00056
  66        4PY         0.00248   0.00003   0.00280  -0.00019   0.00018
  67        4PZ         0.00000  -0.00018  -0.00027  -0.00005  -0.00001
  68        5D 0       -0.00015   0.00001   0.00057  -0.00004   0.00002
  69        5D+1        0.00000  -0.00001   0.00001   0.00000  -0.00002
  70        5D-1       -0.00002   0.00003   0.00006   0.00000  -0.00001
  71        5D+2       -0.00026   0.00014   0.00088  -0.00002   0.00012
  72        5D-2        0.00000  -0.00016   0.00002  -0.00003   0.00009
  73 5   C  1S          0.00000  -0.00001   0.00070  -0.00002   0.56296
  74        2S          0.00003   0.00005   0.00061  -0.00001   0.46330
  75        2PX        -0.00002  -0.00006  -0.00046   0.00003  -0.00009
  76        2PY         0.00012   0.00003   0.00032   0.00000   0.00013
  77        2PZ        -0.00001   0.00001   0.00012   0.00000   0.00006
  78        3S         -0.00025  -0.00037  -0.00005  -0.00025   0.01870
  79        3PX         0.00014   0.00033   0.00111  -0.00019   0.00012
  80        3PY        -0.00057  -0.00021  -0.00099  -0.00003  -0.00131
  81        3PZ         0.00006  -0.00015  -0.00048   0.00000  -0.00079
  82        4S          0.00420   0.00292   0.00626   0.00409  -0.01530
  83        4PX        -0.00266   0.00011  -0.00310  -0.00045   0.00009
  84        4PY        -0.00122   0.00176   0.00117   0.00133  -0.00303
  85        4PZ         0.00127  -0.00077   0.00027   0.00006  -0.00084
  86        5D 0       -0.00003   0.00011   0.00061   0.00002   0.00048
  87        5D+1       -0.00001   0.00002   0.00011   0.00000  -0.00020
  88        5D-1       -0.00012  -0.00002  -0.00011   0.00001  -0.00031
  89        5D+2        0.00007  -0.00020  -0.00041   0.00001  -0.00058
  90        5D-2        0.00033   0.00014   0.00062  -0.00001   0.00013
  91 6   H  1S         -0.00002  -0.00003   0.00000   0.00012   0.00003
  92        2S         -0.00007  -0.00087   0.00014  -0.00309  -0.00029
  93        3S         -0.00013  -0.00006   0.00010   0.00139   0.00007
  94        4PX         0.00003  -0.00018  -0.00001  -0.00081  -0.00006
  95        4PY         0.00000  -0.00011  -0.00006  -0.00064  -0.00001
  96        4PZ         0.00002   0.00025  -0.00006   0.00190   0.00004
  97 7   H  1S         -0.00002  -0.00002  -0.00003   0.00010  -0.00001
  98        2S          0.00006  -0.00103  -0.00042  -0.00330  -0.00017
  99        3S         -0.00032  -0.00053  -0.00092   0.00127   0.00002
 100        4PX        -0.00005   0.00005  -0.00003   0.00031   0.00007
 101        4PY        -0.00010   0.00023   0.00001   0.00227   0.00000
 102        4PZ         0.00000   0.00000   0.00001  -0.00006   0.00001
 103 8   H  1S         -0.00003  -0.00004  -0.00001   0.00011   0.00003
 104        2S         -0.00001  -0.00088   0.00012  -0.00302  -0.00038
 105        3S         -0.00011  -0.00007   0.00009   0.00141   0.00001
 106        4PX         0.00003  -0.00023   0.00000  -0.00114  -0.00008
 107        4PY         0.00001  -0.00012  -0.00007  -0.00067  -0.00002
 108        4PZ        -0.00003  -0.00022   0.00007  -0.00169  -0.00003
 109 9   H  1S         -0.00001   0.00000   0.00002   0.00001  -0.00010
 110        2S         -0.00145  -0.00282  -0.00194  -0.00118   0.00013
 111        3S          0.00027   0.00024  -0.00016  -0.00018  -0.00029
 112        4PX        -0.00008   0.00019   0.00033  -0.00011  -0.00006
 113        4PY        -0.00032  -0.00189  -0.00033  -0.00022  -0.00001
 114        4PZ         0.00002   0.00002  -0.00004   0.00002  -0.00001
 115 10  H  1S         -0.00002   0.00009  -0.00013   0.00000  -0.00009
 116        2S          0.00020  -0.00087  -0.00096  -0.00032  -0.00158
 117        3S          0.00001  -0.00023   0.00054  -0.00003   0.00155
 118        4PX         0.00005  -0.00001  -0.00005  -0.00006   0.00034
 119        4PY         0.00010  -0.00008   0.00008  -0.00004   0.00001
 120        4PZ        -0.00002  -0.00018  -0.00042  -0.00004  -0.00200
 121 11  H  1S          0.00007  -0.00008  -0.00005   0.00002   0.00000
 122        2S         -0.00134   0.00013  -0.00091  -0.00012  -0.00220
 123        3S         -0.00039   0.00036   0.00031   0.00016   0.00151
 124        4PX        -0.00002   0.00002  -0.00014   0.00000  -0.00025
 125        4PY        -0.00022  -0.00006  -0.00024  -0.00005  -0.00184
 126        4PZ         0.00014   0.00004   0.00017  -0.00001   0.00093
 127 12  C  1S          0.00000   0.00000  -0.00002  -0.00001   0.00291
 128        2S          0.00000   0.00002   0.00002   0.00000   0.00237
 129        2PX        -0.00003  -0.00003  -0.00007  -0.00002  -0.00038
 130        2PY        -0.00001  -0.00001  -0.00004  -0.00001  -0.00025
 131        2PZ         0.00000  -0.00003  -0.00004   0.00000  -0.00022
 132        3S          0.00012  -0.00019  -0.00034  -0.00005   0.00029
 133        3PX         0.00011   0.00018   0.00043   0.00010   0.00097
 134        3PY         0.00005   0.00005   0.00019   0.00006   0.00063
 135        3PZ         0.00001   0.00015   0.00026   0.00003   0.00053
 136        4S          0.00010  -0.00031   0.00108  -0.00092   0.00534
 137        4PX         0.00068  -0.00064  -0.00101  -0.00007  -0.00127
 138        4PY        -0.00015   0.00036   0.00034   0.00026  -0.00098
 139        4PZ        -0.00099   0.00073   0.00003   0.00052  -0.00126
 140        5D 0        0.00003  -0.00005   0.00003   0.00000   0.00020
 141        5D+1        0.00000  -0.00006  -0.00006  -0.00001  -0.00049
 142        5D-1        0.00000  -0.00003  -0.00001   0.00000  -0.00030
 143        5D+2       -0.00002  -0.00001  -0.00002   0.00000  -0.00024
 144        5D-2       -0.00006  -0.00003  -0.00016  -0.00001  -0.00060
 145 13  H  1S          0.00004  -0.00005  -0.00008  -0.00004  -0.00001
 146        2S         -0.00035   0.00029   0.00018   0.00026  -0.00120
 147        3S         -0.00009   0.00036   0.00044   0.00021  -0.00031
 148        4PX         0.00000   0.00000   0.00002  -0.00003   0.00036
 149        4PY        -0.00009   0.00001  -0.00005   0.00001  -0.00022
 150        4PZ         0.00003  -0.00003  -0.00004  -0.00003  -0.00006
 151 14  H  1S          0.00003   0.00000   0.00002   0.00000  -0.00006
 152        2S         -0.00015  -0.00011  -0.00043   0.00003  -0.00089
 153        3S         -0.00017   0.00017  -0.00019   0.00003   0.00017
 154        4PX         0.00001   0.00002   0.00009   0.00004  -0.00010
 155        4PY         0.00004   0.00000   0.00006   0.00000   0.00026
 156        4PZ         0.00007  -0.00006  -0.00007  -0.00002  -0.00014
 157 15  H  1S         -0.00004   0.00003   0.00009   0.00001  -0.00009
 158        2S          0.00042  -0.00033  -0.00071  -0.00011  -0.00066
 159        3S          0.00015  -0.00031   0.00013  -0.00016   0.00033
 160        4PX         0.00001   0.00003   0.00008   0.00001  -0.00012
 161        4PY         0.00003  -0.00004  -0.00004  -0.00001  -0.00003
 162        4PZ         0.00000   0.00006   0.00015   0.00002   0.00028
                           6         7         8         9        10
                           O         O         O         O         O
     Eigenvalues --   -10.15988  -1.02974  -0.91990  -0.77893  -0.71024
   1 1   C  1S          0.00001  -0.01183  -0.04154   0.02873  -0.08488
   2        2S          0.00002  -0.01805  -0.06394   0.04447  -0.13187
   3        2PX         0.00002   0.01199   0.03376  -0.00996  -0.00449
   4        2PY         0.00000  -0.00261  -0.01541   0.00407  -0.00144
   5        2PZ         0.00000  -0.00121  -0.00307   0.00084   0.00090
   6        3S         -0.00009   0.04505   0.16675  -0.11852   0.35499
   7        3PX        -0.00011   0.01914   0.05659  -0.01771   0.00085
   8        3PY        -0.00001  -0.00415  -0.02691   0.00728  -0.00610
   9        3PZ         0.00002  -0.00194  -0.00514   0.00153   0.00067
  10        4S          0.00049  -0.00127   0.05153  -0.04609   0.18502
  11        4PX         0.00029  -0.00203   0.00094   0.00158  -0.01481
  12        4PY        -0.00001  -0.00200  -0.00672  -0.00068   0.00211
  13        4PZ         0.00003  -0.00019   0.00018   0.00069   0.00136
  14        5D 0        0.00000  -0.00364  -0.00806   0.00264  -0.00104
  15        5D+1        0.00001  -0.00099  -0.00211   0.00058  -0.00003
  16        5D-1       -0.00001   0.00018   0.00087  -0.00022   0.00000
  17        5D+2       -0.00002   0.00347   0.00854  -0.00216  -0.00024
  18        5D-2        0.00001  -0.00251  -0.01003   0.00259  -0.00153
  19 2   N  1S          0.00000  -0.03802  -0.09865   0.00882   0.01979
  20        2S          0.00002  -0.05959  -0.15517   0.01401   0.03136
  21        2PX         0.00002   0.01220   0.00166   0.03853  -0.09984
  22        2PY         0.00002   0.01472   0.00054  -0.00835   0.01670
  23        2PZ        -0.00002  -0.00245  -0.00148  -0.00420   0.01176
  24        3S         -0.00018   0.16324   0.42564  -0.03999  -0.08885
  25        3PX        -0.00009   0.01942  -0.00094   0.05746  -0.14836
  26        3PY        -0.00008   0.02412   0.00208  -0.01252   0.02495
  27        3PZ         0.00009  -0.00393  -0.00195  -0.00597   0.01763
  28        4S          0.00116   0.09371   0.31301  -0.03414  -0.06328
  29        4PX         0.00056  -0.00740   0.00557   0.03630  -0.08722
  30        4PY         0.00048   0.02512   0.01377  -0.00697   0.01517
  31        4PZ        -0.00023  -0.00022  -0.00238  -0.00427   0.01003
  32        5D 0        0.00000  -0.00451  -0.01108   0.00056   0.00080
  33        5D+1        0.00001  -0.00108  -0.00279  -0.00034   0.00073
  34        5D-1        0.00002  -0.00086  -0.00057  -0.00009   0.00123
  35        5D+2       -0.00001  -0.00029   0.00375   0.00205   0.00298
  36        5D-2       -0.00003   0.00392  -0.00031   0.00240  -0.00902
  37 3   C  1S          0.00002  -0.07217  -0.01100  -0.02580   0.03409
  38        2S          0.00006  -0.11002  -0.01738  -0.04048   0.05331
  39        2PX         0.00007  -0.01546  -0.04248   0.03940   0.03151
  40        2PY        -0.00003   0.06798  -0.08041  -0.04933   0.04968
  41        2PZ        -0.00001  -0.00038   0.00804  -0.00296  -0.00387
  42        3S         -0.00031   0.29238   0.04705   0.11286  -0.15192
  43        3PX        -0.00037  -0.02301  -0.06191   0.06232   0.04589
  44        3PY         0.00015   0.08353  -0.10926  -0.06997   0.06749
  45        3PZ         0.00002   0.00014   0.01115  -0.00495  -0.00507
  46        4S          0.00015   0.07522   0.00255   0.04862  -0.06652
  47        4PX         0.00211   0.01167   0.01706   0.02001  -0.00136
  48        4PY         0.00065  -0.02953  -0.00119  -0.01983   0.01894
  49        4PZ        -0.00023  -0.00050  -0.00247  -0.00276   0.00056
  50        5D 0       -0.00004  -0.01717  -0.00212  -0.00330   0.00436
  51        5D+1        0.00006  -0.00137  -0.00307  -0.00113   0.00178
  52        5D-1        0.00003  -0.00200  -0.00102   0.00092   0.00146
  53        5D+2       -0.00003  -0.01932   0.01633   0.00622   0.00312
  54        5D-2        0.00010   0.00299   0.01202  -0.00452  -0.00940
  55 4   O  1S          0.00000  -0.09467   0.04996   0.02068  -0.01093
  56        2S          0.00000  -0.15113   0.08006   0.03333  -0.01771
  57        2PX         0.00002  -0.00148  -0.00687   0.01142   0.00422
  58        2PY        -0.00002  -0.06991   0.02718   0.00337   0.00520
  59        2PZ         0.00001   0.00241   0.00001  -0.00107   0.00014
  60        3S          0.00003   0.43145  -0.23120  -0.09826   0.05213
  61        3PX        -0.00005  -0.00223  -0.01010   0.01726   0.00647
  62        3PY         0.00009  -0.10170   0.03896   0.00534   0.00575
  63        3PZ        -0.00004   0.00350  -0.00001  -0.00181   0.00023
  64        4S         -0.00053   0.30673  -0.17045  -0.07741   0.04831
  65        4PX        -0.00028  -0.00387  -0.00848   0.00736   0.00468
  66        4PY         0.00000  -0.04218   0.01478  -0.00054   0.00501
  67        4PZ         0.00007   0.00174   0.00080  -0.00005   0.00002
  68        5D 0       -0.00001  -0.00664   0.00255   0.00043  -0.00040
  69        5D+1        0.00000   0.00023  -0.00023   0.00006   0.00003
  70        5D-1        0.00001  -0.00086   0.00000   0.00033   0.00006
  71        5D+2        0.00001  -0.01341   0.00548   0.00133   0.00017
  72        5D-2        0.00002   0.00062   0.00256  -0.00249  -0.00186
  73 5   C  1S         -0.00293  -0.01207  -0.00626  -0.08469  -0.01140
  74        2S         -0.00243  -0.01859  -0.00963  -0.13115  -0.01769
  75        2PX         0.00038  -0.00886  -0.00712   0.00462   0.03936
  76        2PY         0.00026   0.00732  -0.00352   0.01028   0.00693
  77        2PZ         0.00022   0.00125   0.00099   0.00742   0.00540
  78        3S          0.00026   0.04880   0.02469   0.34591   0.04592
  79        3PX        -0.00078  -0.01504  -0.01170   0.00638   0.06258
  80        3PY        -0.00074   0.01534  -0.00512   0.02373   0.01027
  81        3PZ        -0.00055   0.00211   0.00256   0.01662   0.00879
  82        4S          0.00105  -0.00359   0.00584   0.19217   0.04246
  83        4PX         0.00088   0.00964  -0.00943   0.00396   0.01943
  84        4PY        -0.00049   0.00403  -0.01198   0.00253   0.00801
  85        4PZ         0.00065  -0.00408   0.00512   0.00675   0.00399
  86        5D 0        0.00024  -0.00189  -0.00152  -0.00371   0.00166
  87        5D+1       -0.00042  -0.00019  -0.00093   0.00276   0.00440
  88        5D-1       -0.00031   0.00113  -0.00053   0.00258   0.00183
  89        5D+2       -0.00034   0.00040   0.00398   0.00472  -0.00225
  90        5D-2       -0.00042  -0.00461   0.00075   0.00147   0.00631
  91 6   H  1S          0.00001   0.00422   0.01934  -0.01837   0.06778
  92        2S         -0.00011   0.00647   0.02340  -0.02320   0.08158
  93        3S          0.00002  -0.00011  -0.00111  -0.00162   0.00752
  94        4PX        -0.00003   0.00115   0.00367  -0.00216   0.00532
  95        4PY        -0.00001   0.00053   0.00117  -0.00103   0.00362
  96        4PZ         0.00002  -0.00141  -0.00478   0.00376  -0.01172
  97 7   H  1S          0.00000   0.00709   0.01900  -0.01937   0.06425
  98        2S         -0.00010   0.01120   0.02570  -0.02386   0.07673
  99        3S          0.00005   0.00424  -0.00067  -0.00159   0.00705
 100        4PX         0.00002   0.00091  -0.00026  -0.00003  -0.00213
 101        4PY         0.00001  -0.00185  -0.00644   0.00440  -0.01304
 102        4PZ        -0.00001  -0.00007   0.00010  -0.00010   0.00040
 103 8   H  1S          0.00001   0.00430   0.01929  -0.01833   0.06731
 104        2S         -0.00009   0.00620   0.02339  -0.02245   0.08097
 105        3S          0.00005  -0.00035  -0.00115  -0.00118   0.00725
 106        4PX        -0.00003   0.00136   0.00448  -0.00275   0.00746
 107        4PY        -0.00001   0.00054   0.00128  -0.00103   0.00378
 108        4PZ        -0.00001   0.00117   0.00396  -0.00323   0.01039
 109 9   H  1S         -0.00002   0.01938   0.07418   0.00012  -0.03434
 110        2S          0.00007   0.02744   0.07194   0.00007  -0.03699
 111        3S          0.00015  -0.00132   0.00177   0.00053  -0.00357
 112        4PX        -0.00001   0.00055  -0.00146   0.00230  -0.00468
 113        4PY        -0.00001   0.00679   0.01738  -0.00019  -0.00647
 114        4PZ         0.00002  -0.00027  -0.00036  -0.00019   0.00081
 115 10  H  1S         -0.00010   0.00519   0.00288   0.05646   0.00915
 116        2S         -0.00036   0.00523   0.00627   0.06585   0.00827
 117        3S          0.00015  -0.00143  -0.00002  -0.00083   0.00173
 118        4PX         0.00011  -0.00059  -0.00017  -0.00183   0.00176
 119        4PY         0.00006   0.00021   0.00022   0.00172   0.00050
 120        4PZ        -0.00024   0.00151   0.00136   0.01296   0.00159
 121 11  H  1S         -0.00006   0.00441   0.00703   0.05760   0.00329
 122        2S         -0.00082   0.00982   0.00412   0.06534   0.00198
 123        3S         -0.00010   0.00008  -0.00184  -0.00049   0.00002
 124        4PX        -0.00002  -0.00048  -0.00060   0.00116   0.00256
 125        4PY        -0.00028   0.00222   0.00100   0.01206   0.00067
 126        4PZ         0.00016  -0.00088  -0.00041  -0.00454   0.00006
 127 12  C  1S          0.56296  -0.00342  -0.00006  -0.06395  -0.04811
 128        2S          0.46325  -0.00525  -0.00012  -0.09881  -0.07453
 129        2PX        -0.00021  -0.00307   0.00005  -0.02160  -0.00135
 130        2PY        -0.00025  -0.00004  -0.00091  -0.01236  -0.00268
 131        2PZ        -0.00009  -0.00088   0.00008  -0.01072  -0.00250
 132        3S          0.01859   0.01300   0.00124   0.25842   0.19644
 133        3PX         0.00122  -0.00599  -0.00097  -0.03963  -0.00449
 134        3PY         0.00090  -0.00055  -0.00162  -0.02267  -0.00575
 135        3PZ         0.00061  -0.00237  -0.00022  -0.01995  -0.00518
 136        4S         -0.00683   0.00316   0.00316   0.12966   0.10942
 137        4PX         0.00120  -0.00259   0.00479  -0.00285   0.00085
 138        4PY         0.00024   0.00016  -0.00233  -0.00476  -0.00042
 139        4PZ         0.00007   0.00346  -0.00611  -0.00492   0.00040
 140        5D 0        0.00016  -0.00065   0.00003  -0.00243  -0.00014
 141        5D+1       -0.00035   0.00086   0.00013   0.00499   0.00084
 142        5D-1       -0.00023   0.00022   0.00007   0.00280   0.00089
 143        5D+2       -0.00025   0.00094   0.00011   0.00359  -0.00013
 144        5D-2       -0.00048   0.00040   0.00043   0.00538   0.00056
 145 13  H  1S          0.00012   0.00080   0.00040   0.04035   0.03745
 146        2S         -0.00292   0.00215  -0.00186   0.04487   0.04376
 147        3S          0.00122  -0.00005  -0.00206   0.00149   0.00429
 148        4PX         0.00175  -0.00034  -0.00016  -0.00864  -0.00631
 149        4PY        -0.00113   0.00033  -0.00020   0.00346   0.00337
 150        4PZ        -0.00051  -0.00007   0.00016   0.00129   0.00139
 151 14  H  1S          0.00007   0.00239  -0.00072   0.04013   0.03580
 152        2S         -0.00269   0.00337  -0.00096   0.04503   0.04107
 153        3S          0.00147   0.00149  -0.00190  -0.00186   0.00343
 154        4PX         0.00001  -0.00053   0.00020  -0.00107  -0.00045
 155        4PY         0.00199  -0.00053   0.00007  -0.00892  -0.00686
 156        4PZ        -0.00079  -0.00001   0.00031   0.00261   0.00216
 157 15  H  1S          0.00006   0.00178  -0.00013   0.04040   0.03549
 158        2S         -0.00245   0.00079   0.00256   0.04809   0.04104
 159        3S          0.00154  -0.00106   0.00164   0.00017   0.00354
 160        4PX        -0.00035  -0.00009  -0.00009  -0.00021   0.00058
 161        4PY         0.00004  -0.00002   0.00009  -0.00105  -0.00060
 162        4PZ         0.00205  -0.00063  -0.00022  -0.00951  -0.00708
                          11        12        13        14        15
                           O         O         O         O         O
     Eigenvalues --    -0.63364  -0.58150  -0.50631  -0.47471  -0.46207
   1 1   C  1S          0.03849  -0.01077  -0.01601  -0.00604   0.00321
   2        2S          0.06002  -0.01677  -0.02508  -0.00955   0.00503
   3        2PX         0.02914   0.00246  -0.10282  -0.08104   0.07704
   4        2PY        -0.01715   0.05692  -0.00027   0.05040  -0.02672
   5        2PZ        -0.00196  -0.00225   0.01476   0.03189   0.09223
   6        3S         -0.16182   0.04468   0.06471   0.02326  -0.01090
   7        3PX         0.04027   0.00470  -0.15217  -0.11509   0.11213
   8        3PY        -0.02372   0.08594  -0.00116   0.07378  -0.03985
   9        3PZ        -0.00257  -0.00350   0.02184   0.04632   0.13476
  10        4S         -0.11657   0.02879   0.08715   0.06185  -0.03169
  11        4PX         0.01779  -0.00233  -0.07199  -0.04960   0.05592
  12        4PY        -0.00864   0.04408  -0.00702   0.02951  -0.01657
  13        4PZ        -0.00122  -0.00096   0.01155   0.02420   0.07945
  14        5D 0       -0.00359  -0.00173   0.01308   0.00726  -0.00616
  15        5D+1       -0.00064  -0.00114   0.00341   0.00242  -0.00236
  16        5D-1        0.00043  -0.00101  -0.00117  -0.00335  -0.00803
  17        5D+2        0.00309   0.00446  -0.01038  -0.00962   0.00680
  18        5D-2       -0.00595   0.01282   0.00828   0.01174  -0.00928
  19 2   N  1S         -0.02846   0.01393   0.01676   0.00913  -0.00440
  20        2S         -0.04531   0.02211   0.02699   0.01462  -0.00707
  21        2PX         0.00208   0.07791   0.06798   0.10516  -0.06722
  22        2PY        -0.03124   0.16969  -0.08299  -0.03907   0.03699
  23        2PZ         0.00337  -0.01417   0.00269   0.01994   0.09845
  24        3S          0.13047  -0.06208  -0.08093  -0.04518   0.02180
  25        3PX         0.00372   0.11558   0.09912   0.15234  -0.09769
  26        3PY        -0.04622   0.24663  -0.12219  -0.05522   0.05441
  27        3PZ         0.00526  -0.02063   0.00472   0.03059   0.14866
  28        4S          0.11395  -0.05400  -0.08494  -0.04382   0.02546
  29        4PX        -0.00064   0.06089   0.06659   0.14094  -0.07491
  30        4PY        -0.03035   0.16065  -0.08226  -0.05066   0.04430
  31        4PZ         0.00297  -0.01193   0.00353   0.02399   0.12241
  32        5D 0       -0.00104   0.00109   0.00008  -0.00153  -0.00062
  33        5D+1        0.00108  -0.00121   0.00034   0.00079   0.00013
  34        5D-1       -0.00009  -0.00100   0.00068   0.00120   0.00563
  35        5D+2       -0.00707   0.00914   0.00113  -0.00383   0.00313
  36        5D-2        0.00153   0.00788   0.00212   0.00434  -0.00288
  37 3   C  1S          0.02370  -0.04445  -0.03778   0.01884  -0.00458
  38        2S          0.03738  -0.06986  -0.05987   0.02994  -0.00733
  39        2PX        -0.05128  -0.08451   0.08094  -0.06371   0.04929
  40        2PY         0.02872  -0.03860  -0.03175  -0.04292   0.02940
  41        2PZ         0.01444   0.01614   0.00539   0.04733   0.07896
  42        3S         -0.10697   0.20464   0.17664  -0.09086   0.02313
  43        3PX        -0.07694  -0.12153   0.11565  -0.08932   0.07146
  44        3PY         0.04147  -0.05028  -0.04308  -0.06135   0.04175
  45        3PZ         0.02255   0.02340   0.00986   0.07273   0.12384
  46        4S         -0.06656   0.09971   0.12523  -0.08756   0.01785
  47        4PX        -0.03594  -0.02613   0.06179  -0.05176   0.03980
  48        4PY         0.02724  -0.03161  -0.04166   0.03745  -0.00527
  49        4PZ         0.00946   0.00577   0.00519   0.03674   0.06779
  50        5D 0        0.00127  -0.00427  -0.00174  -0.00053   0.00064
  51        5D+1        0.00247  -0.00240   0.00197   0.00240  -0.00352
  52        5D-1       -0.00205  -0.00008  -0.00134  -0.00131   0.00145
  53        5D+2       -0.00177   0.01594  -0.00980  -0.01357   0.00466
  54        5D-2        0.01157   0.00244   0.00908  -0.00174  -0.00542
  55 4   O  1S         -0.01231   0.02942   0.01497  -0.02710   0.01043
  56        2S         -0.01994   0.04760   0.02439  -0.04385   0.01688
  57        2PX        -0.00941  -0.03296   0.05039  -0.04267   0.02538
  58        2PY         0.00827  -0.03012  -0.03124   0.07457  -0.03222
  59        2PZ         0.00496   0.00728   0.00421   0.02634   0.05654
  60        3S          0.05987  -0.14218  -0.07399   0.13166  -0.05050
  61        3PX        -0.01490  -0.04759   0.07284  -0.06301   0.03825
  62        3PY         0.01078  -0.04142  -0.04067   0.10435  -0.04480
  63        3PZ         0.00748   0.01035   0.00608   0.03940   0.08318
  64        4S          0.05246  -0.14043  -0.08056   0.14760  -0.05885
  65        4PX        -0.00428  -0.03281   0.05039  -0.04436   0.02596
  66        4PY         0.00928  -0.03064  -0.03214   0.07936  -0.03463
  67        4PZ         0.00412   0.00784   0.00518   0.02787   0.06309
  68        5D 0        0.00034  -0.00182  -0.00098   0.00470  -0.00149
  69        5D+1        0.00012  -0.00029   0.00037   0.00000   0.00004
  70        5D-1       -0.00111  -0.00126  -0.00069  -0.00396  -0.00834
  71        5D+2        0.00031  -0.00187  -0.00164   0.00652  -0.00283
  72        5D-2        0.00304   0.00578  -0.00675   0.00577  -0.00424
  73 5   C  1S          0.05344   0.02097   0.02579   0.00123  -0.00921
  74        2S          0.08334   0.03281   0.04041   0.00209  -0.01452
  75        2PX         0.05137  -0.00785  -0.07544   0.00749  -0.00565
  76        2PY         0.01832   0.01765   0.08026  -0.10302   0.00828
  77        2PZ         0.02550   0.01369   0.04041   0.06194   0.08838
  78        3S         -0.22672  -0.08871  -0.10852  -0.01009   0.04197
  79        3PX         0.08106  -0.01068  -0.11511   0.01331  -0.00993
  80        3PY         0.02420   0.02363   0.11945  -0.15134   0.01239
  81        3PZ         0.03689   0.01956   0.06026   0.09095   0.13173
  82        4S         -0.13173  -0.06487  -0.10797   0.02669   0.02838
  83        4PX         0.03062   0.00645  -0.04825  -0.02570   0.00963
  84        4PY         0.02073   0.01337   0.06822  -0.09606   0.01146
  85        4PZ         0.01992   0.01543   0.03685   0.06400   0.09181
  86        5D 0       -0.00145  -0.00172  -0.01018  -0.00222  -0.00407
  87        5D+1        0.00600   0.00081  -0.00146  -0.00041  -0.00131
  88        5D-1        0.00359   0.00172   0.00592  -0.00644   0.00341
  89        5D+2        0.00211   0.00532   0.00547  -0.00292  -0.00588
  90        5D-2        0.00925   0.00005  -0.01033   0.00574  -0.00122
  91 6   H  1S         -0.03959  -0.00169   0.06040   0.04596   0.03730
  92        2S         -0.04685   0.00063   0.07280   0.05841   0.04779
  93        3S         -0.00717  -0.00079   0.02626   0.02030   0.02792
  94        4PX        -0.00152   0.00064  -0.00165  -0.00116   0.00667
  95        4PY        -0.00260   0.00282   0.00181   0.00436   0.00036
  96        4PZ         0.00573   0.00022  -0.00670  -0.00431  -0.00018
  97 7   H  1S         -0.04071   0.04724   0.00647   0.04289  -0.02201
  98        2S         -0.04719   0.05437   0.00756   0.05231  -0.02739
  99        3S         -0.00578   0.00522  -0.00643   0.03288  -0.01578
 100        4PX         0.00273  -0.00156  -0.00598  -0.00364   0.00394
 101        4PY         0.00653  -0.00493  -0.00120  -0.00277   0.00132
 102        4PZ        -0.00030   0.00015   0.00092   0.00196   0.00584
 103 8   H  1S         -0.04023  -0.00013   0.05460   0.01532  -0.08972
 104        2S         -0.04746   0.00275   0.06646   0.01921  -0.11559
 105        3S         -0.00751  -0.00042   0.02317   0.00082  -0.05259
 106        4PX        -0.00265   0.00074  -0.00075  -0.00300  -0.00400
 107        4PY        -0.00275   0.00289   0.00173   0.00308  -0.00498
 108        4PZ        -0.00532  -0.00030   0.00665   0.00329  -0.00532
 109 9   H  1S          0.04945  -0.13715   0.04981   0.03485  -0.02968
 110        2S          0.05273  -0.15781   0.06075   0.04436  -0.03681
 111        3S          0.01283  -0.04711   0.01917   0.02128  -0.01534
 112        4PX        -0.00155   0.00667   0.00283   0.00796  -0.00355
 113        4PY         0.00728  -0.01556   0.00543   0.00314  -0.00296
 114        4PZ         0.00017  -0.00026   0.00013   0.00157   0.00784
 115 10  H  1S         -0.05733  -0.03042  -0.07162  -0.04043  -0.06263
 116        2S         -0.07053  -0.03626  -0.08892  -0.05040  -0.07566
 117        3S         -0.00685  -0.00686  -0.03011  -0.01730  -0.03511
 118        4PX         0.00435   0.00031  -0.00270   0.00230   0.00129
 119        4PY        -0.00027   0.00033   0.00333  -0.00640  -0.00089
 120        4PZ        -0.00902  -0.00467  -0.00799  -0.00266  -0.00436
 121 11  H  1S         -0.05308  -0.02948  -0.06395   0.09471   0.03004
 122        2S         -0.06516  -0.04064  -0.07978   0.11983   0.03892
 123        3S         -0.00796  -0.01290  -0.02446   0.05152   0.01745
 124        4PX         0.00132   0.00101  -0.00565  -0.00042   0.00041
 125        4PY        -0.00826  -0.00354  -0.00460   0.00760   0.00452
 126        4PZ         0.00500   0.00224   0.00577  -0.00130   0.00324
 127 12  C  1S         -0.07058  -0.01764  -0.00826  -0.00115   0.00572
 128        2S         -0.10975  -0.02752  -0.01294  -0.00178   0.00897
 129        2PX         0.03359   0.01544  -0.00489   0.02265  -0.06226
 130        2PY         0.01648   0.01017   0.05141  -0.04942  -0.01407
 131        2PZ         0.01771   0.01234   0.03230   0.04341   0.03739
 132        3S          0.29247   0.07444   0.03477   0.00464  -0.02330
 133        3PX         0.04829   0.02242  -0.00785   0.03419  -0.09033
 134        3PY         0.02348   0.01507   0.07568  -0.07222  -0.02142
 135        3PZ         0.02548   0.01816   0.04720   0.06421   0.05482
 136        4S          0.18436   0.04549   0.02581   0.00863  -0.03978
 137        4PX         0.02204   0.01659  -0.00017   0.01403  -0.04816
 138        4PY         0.01040   0.00853   0.04253  -0.04757  -0.00330
 139        4PZ         0.01259   0.00908   0.02494   0.02775   0.03382
 140        5D 0        0.00233   0.00110   0.00094   0.00049   0.00001
 141        5D+1       -0.00514  -0.00271  -0.00263  -0.00638   0.00010
 142        5D-1       -0.00258  -0.00188  -0.00693   0.00315  -0.00003
 143        5D+2       -0.00341  -0.00030   0.00238  -0.00125   0.00385
 144        5D-2       -0.00551  -0.00279  -0.00379   0.00194   0.00674
 145 13  H  1S          0.07016   0.01981  -0.01805   0.02737  -0.04892
 146        2S          0.08532   0.02349  -0.02198   0.03600  -0.06242
 147        3S          0.01370   0.00559  -0.00735   0.01196  -0.02469
 148        4PX        -0.00900  -0.00195   0.00291  -0.00290   0.00331
 149        4PY         0.00686   0.00204   0.00127  -0.00093  -0.00453
 150        4PZ         0.00354   0.00129   0.00122   0.00384   0.00091
 151 14  H  1S          0.06596   0.01869   0.03520  -0.04387  -0.02937
 152        2S          0.07812   0.02334   0.04386  -0.05557  -0.03727
 153        3S          0.01224  -0.00196   0.00863  -0.00920  -0.01884
 154        4PX         0.00116   0.00138  -0.00066   0.00129  -0.00331
 155        4PY        -0.01042  -0.00283  -0.00252   0.00448   0.00372
 156        4PZ         0.00477   0.00188   0.00370   0.00047   0.00077
 157 15  H  1S          0.06890   0.02332   0.03380   0.03159   0.02776
 158        2S          0.08209   0.02982   0.04449   0.04117   0.03597
 159        3S          0.01419   0.00643   0.01256   0.01997   0.01746
 160        4PX         0.00273   0.00091  -0.00002   0.00176  -0.00354
 161        4PY         0.00007   0.00031   0.00259  -0.00331  -0.00137
 162        4PZ        -0.01129  -0.00335  -0.00407  -0.00265  -0.00271
                          16        17        18        19        20
                           O         O         O         O         O
     Eigenvalues --    -0.43959  -0.41949  -0.39221  -0.38883  -0.36525
   1 1   C  1S         -0.00027  -0.00118   0.00113  -0.00255  -0.00533
   2        2S         -0.00040  -0.00211   0.00198  -0.00399  -0.00861
   3        2PX        -0.01989   0.05468   0.00193   0.06573   0.04804
   4        2PY         0.02551   0.08648   0.13039   0.10550   0.00381
   5        2PZ         0.14645  -0.02144  -0.04905   0.04783  -0.03384
   6        3S         -0.00073   0.01034  -0.01046   0.01076   0.02804
   7        3PX        -0.02909   0.08387  -0.00191   0.09312   0.07250
   8        3PY         0.03799   0.12622   0.18794   0.15046   0.00380
   9        3PZ         0.21306  -0.03150  -0.07021   0.06911  -0.04884
  10        4S          0.00929   0.01779   0.00198   0.01393   0.03914
  11        4PX        -0.01277   0.05981  -0.00009   0.05980   0.05224
  12        4PY         0.02050   0.07524   0.14289   0.11915   0.00260
  13        4PZ         0.13024  -0.01984  -0.04361   0.04123  -0.03072
  14        5D 0        0.00396  -0.01001  -0.00746  -0.00922  -0.00558
  15        5D+1       -0.00552   0.00015   0.00649  -0.00785   0.00444
  16        5D-1       -0.01225   0.00103   0.00219  -0.00337   0.00194
  17        5D+2       -0.00422  -0.00516  -0.01587  -0.01267   0.00148
  18        5D-2        0.00382  -0.00069   0.00431  -0.00331  -0.00524
  19 2   N  1S         -0.00046  -0.00607   0.00096   0.00510   0.00153
  20        2S         -0.00075  -0.00968   0.00168   0.00832   0.00257
  21        2PX         0.05431  -0.00036   0.02620  -0.04333  -0.04117
  22        2PY        -0.01390   0.01289  -0.07353  -0.04658   0.01896
  23        2PZ         0.06730  -0.00204   0.01905  -0.02075   0.03071
  24        3S          0.00228   0.02629  -0.00695  -0.02665  -0.00883
  25        3PX         0.07994  -0.00484   0.04108  -0.06261  -0.06483
  26        3PY        -0.02057   0.01898  -0.10657  -0.06612   0.02785
  27        3PZ         0.10220  -0.00249   0.02857  -0.03185   0.04610
  28        4S         -0.00393   0.06551  -0.01498  -0.02569   0.01065
  29        4PX         0.05886   0.04327   0.01226  -0.05308  -0.02127
  30        4PY        -0.01712   0.00111  -0.05375  -0.03108   0.01427
  31        4PZ         0.08813  -0.00800   0.02413  -0.02663   0.03785
  32        5D 0        0.00116  -0.00099  -0.00197   0.00092  -0.00132
  33        5D+1       -0.00773   0.00123   0.00796  -0.00691   0.00393
  34        5D-1        0.00321   0.00106   0.00149  -0.00109   0.00235
  35        5D+2       -0.00333   0.00035  -0.01567  -0.00918   0.00770
  36        5D-2        0.00211  -0.00830  -0.00443  -0.00993  -0.00625
  37 3   C  1S          0.00286   0.02732  -0.00118  -0.00509  -0.01096
  38        2S          0.00458   0.04326  -0.00172  -0.00804  -0.01763
  39        2PX        -0.02322   0.03260   0.00466   0.05039   0.09682
  40        2PY        -0.01367  -0.10158   0.07826   0.03472  -0.05843
  41        2PZ         0.00755   0.00794   0.05364  -0.08747   0.03648
  42        3S         -0.01464  -0.13807   0.00716   0.02232   0.04933
  43        3PX        -0.03300   0.05082   0.00740   0.06994   0.14077
  44        3PY        -0.01933  -0.14560   0.11297   0.04892  -0.08452
  45        3PZ         0.00970   0.01163   0.08268  -0.13290   0.05657
  46        4S         -0.00090  -0.10699  -0.02270   0.00807   0.08414
  47        4PX        -0.01848   0.02792   0.00793   0.05039   0.11864
  48        4PY        -0.00346   0.03832  -0.00828  -0.01346  -0.02406
  49        4PZ         0.00357   0.00551   0.06397  -0.09795   0.04327
  50        5D 0        0.00267   0.00209  -0.00281   0.00039   0.00122
  51        5D+1       -0.01222  -0.00095   0.00031   0.00271  -0.00376
  52        5D-1       -0.00061   0.00237   0.00419  -0.00780   0.00455
  53        5D+2       -0.00031   0.01645  -0.00726  -0.01044   0.00175
  54        5D-2        0.00520   0.00221   0.00241  -0.00875   0.00224
  55 4   O  1S         -0.00414  -0.03127   0.01939   0.01150  -0.00796
  56        2S         -0.00668  -0.05068   0.03154   0.01875  -0.01286
  57        2PX        -0.00786   0.01684  -0.00537   0.00744   0.07227
  58        2PY         0.01996   0.17136  -0.09798  -0.06183   0.05849
  59        2PZ         0.00225   0.00235   0.05772  -0.07872   0.03858
  60        3S          0.01962   0.15127  -0.09700  -0.05791   0.03827
  61        3PX        -0.01225   0.02491  -0.00850   0.01167   0.10598
  62        3PY         0.02735   0.23508  -0.13333  -0.08355   0.08060
  63        3PZ         0.00318   0.00401   0.08452  -0.11590   0.05663
  64        4S          0.02801   0.19633  -0.10909  -0.06757   0.05384
  65        4PX        -0.00746   0.01672  -0.00979   0.00195   0.08215
  66        4PY         0.02113   0.18893  -0.11807  -0.07375   0.06989
  67        4PZ         0.00368   0.00301   0.06812  -0.09180   0.04765
  68        5D 0        0.00100   0.00773  -0.00485  -0.00322   0.00309
  69        5D+1       -0.00065   0.00012  -0.00028  -0.00010   0.00003
  70        5D-1       -0.00044   0.00012  -0.00717   0.00961  -0.00436
  71        5D+2        0.00175   0.01483  -0.00676  -0.00411   0.00447
  72        5D-2        0.00171  -0.00263   0.00031  -0.00266  -0.00911
  73 5   C  1S          0.00351  -0.00680  -0.00323   0.00700   0.00524
  74        2S          0.00553  -0.01073  -0.00513   0.01112   0.00815
  75        2PX         0.02064  -0.02528   0.07683  -0.06985  -0.09018
  76        2PY         0.02351   0.04491   0.03677  -0.02975   0.00679
  77        2PZ        -0.09015   0.00708   0.02920  -0.02983   0.02491
  78        3S         -0.01566   0.03000   0.01670  -0.03325  -0.01907
  79        3PX         0.03081  -0.03866   0.11568  -0.10261  -0.13719
  80        3PY         0.03382   0.06490   0.05593  -0.04369   0.00915
  81        3PZ        -0.13262   0.01148   0.04333  -0.04521   0.03645
  82        4S         -0.01603   0.06056  -0.00618  -0.04650  -0.05704
  83        4PX         0.02161  -0.06122   0.09631  -0.06462  -0.07928
  84        4PY         0.02037   0.03316   0.04311  -0.02813  -0.01223
  85        4PZ        -0.08868   0.01472   0.02316  -0.03002   0.02057
  86        5D 0        0.00452  -0.00095  -0.00291   0.00331  -0.01378
  87        5D+1       -0.00512  -0.00213  -0.00058   0.00484  -0.00916
  88        5D-1        0.00122   0.00409   0.00393  -0.00427  -0.00503
  89        5D+2        0.00495   0.00025  -0.00067  -0.00227   0.01169
  90        5D-2        0.00235   0.00446   0.00511  -0.01067  -0.01315
  91 6   H  1S          0.10634  -0.05488  -0.07042  -0.01038  -0.04251
  92        2S          0.14277  -0.07365  -0.10408  -0.01126  -0.06514
  93        3S          0.06828  -0.04202  -0.05079  -0.00575  -0.03805
  94        4PX         0.00603  -0.00005  -0.00385   0.00365   0.00006
  95        4PY         0.00534   0.00350   0.00494   0.00608  -0.00101
  96        4PZ        -0.00564   0.00541   0.00656   0.00446   0.00315
  97 7   H  1S          0.01813   0.08006   0.11297   0.09835   0.01118
  98        2S          0.02329   0.09889   0.15388   0.13194   0.00991
  99        3S          0.01259   0.07128   0.05209   0.04806   0.01031
 100        4PX        -0.00099   0.00140  -0.00258   0.00060   0.00124
 101        4PY        -0.00108  -0.00632  -0.00944  -0.00882  -0.00178
 102        4PZ         0.00871  -0.00097  -0.00225   0.00312  -0.00164
 103 8   H  1S         -0.08649  -0.03361  -0.00077  -0.09166   0.00281
 104        2S         -0.11601  -0.04371   0.00028  -0.13454   0.00648
 105        3S         -0.05807  -0.02673   0.00180  -0.06827  -0.00039
 106        4PX        -0.00880   0.00061   0.00053  -0.00380   0.00289
 107        4PY        -0.00221   0.00421   0.00753   0.00276   0.00068
 108        4PZ        -0.00187  -0.00474  -0.00363  -0.00766  -0.00178
 109 9   H  1S          0.01656  -0.00527   0.07369   0.03833  -0.02618
 110        2S          0.02117  -0.01882   0.12235   0.06798  -0.04562
 111        3S          0.00758  -0.00388   0.06073   0.03740  -0.02231
 112        4PX         0.00260   0.00026   0.00064  -0.00187  -0.00169
 113        4PY         0.00229  -0.00150   0.00747   0.00297  -0.00304
 114        4PZ         0.00506  -0.00018   0.00147  -0.00220   0.00256
 115 10  H  1S          0.07080  -0.00556  -0.01558   0.01229  -0.04544
 116        2S          0.09456  -0.00684  -0.02246   0.01707  -0.06375
 117        3S          0.03749  -0.00057  -0.01652   0.01292  -0.04475
 118        4PX        -0.00026  -0.00095   0.00510  -0.00498  -0.00381
 119        4PY         0.00267   0.00320   0.00144  -0.00154   0.00040
 120        4PZ         0.00559  -0.00028  -0.00042  -0.00030  -0.00304
 121 11  H  1S         -0.05116  -0.02344  -0.02101   0.01507   0.00311
 122        2S         -0.06833  -0.03958  -0.02298   0.02421   0.00531
 123        3S         -0.02875  -0.02214  -0.00837   0.01431  -0.00197
 124        4PX        -0.00005  -0.00191   0.00264  -0.00398  -0.00484
 125        4PY        -0.00580  -0.00116  -0.00106   0.00026   0.00214
 126        4PZ        -0.00229   0.00220   0.00290  -0.00276   0.00131
 127 12  C  1S         -0.00127   0.00031  -0.00130   0.00151   0.00517
 128        2S         -0.00201   0.00040  -0.00205   0.00244   0.00821
 129        2PX         0.04063  -0.06300  -0.04181   0.05711   0.13866
 130        2PY         0.02769   0.07871  -0.03732  -0.00773  -0.05568
 131        2PZ        -0.07734   0.00129  -0.08048   0.09886  -0.05805
 132        3S          0.00519   0.00093   0.00712  -0.00946  -0.02473
 133        3PX         0.05930  -0.09117  -0.06121   0.08312   0.19870
 134        3PY         0.04105   0.11583  -0.05611  -0.01054  -0.07789
 135        3PZ        -0.11228   0.00118  -0.11612   0.14284  -0.08206
 136        4S          0.00750  -0.00166  -0.00146   0.00472  -0.02295
 137        4PX         0.03329  -0.05953  -0.03635   0.05646   0.13003
 138        4PY         0.02797   0.06634  -0.02147  -0.01749  -0.06208
 139        4PZ        -0.07355  -0.00773  -0.07352   0.09822  -0.06381
 140        5D 0       -0.00351   0.00195  -0.00812   0.00932  -0.01546
 141        5D+1        0.00339   0.00373   0.00511  -0.00611  -0.00691
 142        5D-1       -0.00050  -0.00619   0.00326   0.00009   0.00007
 143        5D+2       -0.00362  -0.00397   0.00274   0.00206   0.00964
 144        5D-2       -0.00509   0.00553   0.00392  -0.00693  -0.01527
 145 13  H  1S          0.03233  -0.07873   0.00133   0.02648   0.14136
 146        2S          0.04420  -0.10464   0.00173   0.03350   0.20479
 147        3S          0.01988  -0.05621   0.00534   0.01839   0.12165
 148        4PX        -0.00225   0.00618  -0.00238   0.00049  -0.00832
 149        4PY         0.00407  -0.00063  -0.00235   0.00119   0.00586
 150        4PZ        -0.00366  -0.00206  -0.00501   0.00680   0.00067
 151 14  H  1S          0.04575   0.05918  -0.00893  -0.03460  -0.02391
 152        2S          0.05528   0.07287  -0.01451  -0.04063  -0.03183
 153        3S          0.02406   0.05595  -0.02366  -0.02745  -0.00002
 154        4PX         0.00218  -0.00494  -0.00157   0.00338   0.00713
 155        4PY        -0.00507  -0.00316  -0.00115   0.00383   0.00046
 156        4PZ        -0.00224   0.00323  -0.00525   0.00401  -0.00454
 157 15  H  1S         -0.06311   0.00858  -0.06690   0.07988  -0.07406
 158        2S         -0.08256   0.01347  -0.09363   0.11073  -0.10454
 159        3S         -0.03260   0.00982  -0.04828   0.05362  -0.05739
 160        4PX         0.00174  -0.00345  -0.00361   0.00463   0.00772
 161        4PY         0.00238   0.00490  -0.00179  -0.00131  -0.00260
 162        4PZ         0.00554  -0.00154   0.00511  -0.00567   0.00618
                          21        22        23        24        25
                           O         O         O         O         V
     Eigenvalues --    -0.36221  -0.34243  -0.25563  -0.25151   0.02351
   1 1   C  1S         -0.00082  -0.00090   0.00025  -0.00230  -0.00450
   2        2S         -0.00123  -0.00144   0.00037  -0.00365  -0.00692
   3        2PX         0.00875   0.01018  -0.00850  -0.01394  -0.01084
   4        2PY         0.00069  -0.00167  -0.00072   0.03171   0.00160
   5        2PZ        -0.03357   0.03942  -0.05688   0.00382   0.01224
   6        3S          0.00259   0.00421  -0.00114   0.01080   0.01078
   7        3PX         0.01177   0.01584  -0.01052  -0.02213  -0.01278
   8        3PY        -0.00088  -0.00392  -0.00147   0.04479   0.00219
   9        3PZ        -0.04788   0.05603  -0.07906   0.00554   0.01601
  10        4S          0.00293   0.01802   0.01370   0.03741   0.18473
  11        4PX         0.00626   0.01044  -0.00872  -0.04203  -0.03684
  12        4PY         0.00554  -0.00244  -0.00013   0.08098   0.00678
  13        4PZ        -0.02730   0.02530  -0.09434   0.00850   0.15358
  14        5D 0       -0.00227   0.00121  -0.00423   0.00256  -0.00348
  15        5D+1        0.00593  -0.00907   0.02816  -0.00127   0.01732
  16        5D-1        0.00156  -0.00122  -0.00262   0.00018  -0.00760
  17        5D+2       -0.00010  -0.00050   0.00388   0.00217   0.00232
  18        5D-2       -0.00109  -0.00093   0.00072   0.00264  -0.00208
  19 2   N  1S          0.00577   0.00201  -0.00193  -0.01890  -0.00779
  20        2S          0.00929   0.00332  -0.00310  -0.03012  -0.01245
  21        2PX        -0.02015  -0.01328   0.02984   0.05943   0.01569
  22        2PY        -0.00455   0.00432   0.01047   0.04337  -0.01041
  23        2PZ         0.03413  -0.05345   0.22342  -0.01936   0.10859
  24        3S         -0.02801  -0.01144   0.00902   0.08498   0.03366
  25        3PX        -0.02868  -0.02219   0.04098   0.07840   0.02142
  26        3PY        -0.00480   0.00681   0.01589   0.06124  -0.01043
  27        3PZ         0.05142  -0.08113   0.31970  -0.02717   0.15394
  28        4S         -0.04264   0.00088   0.01903   0.22560   0.15403
  29        4PX        -0.02791   0.00265   0.06484   0.08420   0.05006
  30        4PY         0.00998   0.00735   0.00814   0.05759  -0.03255
  31        4PZ         0.04272  -0.07012   0.40788  -0.03224   0.25151
  32        5D 0       -0.00186   0.00130  -0.00134   0.00310   0.00370
  33        5D+1        0.00547  -0.00683   0.00571   0.00082  -0.01993
  34        5D-1        0.00180  -0.00324  -0.00163   0.00019  -0.00885
  35        5D+2       -0.00162  -0.00025   0.00017  -0.00443  -0.00007
  36        5D-2       -0.00021  -0.00120   0.00013  -0.00214  -0.00204
  37 3   C  1S         -0.00033  -0.00110   0.00095   0.00801   0.00165
  38        2S         -0.00040  -0.00176   0.00161   0.01318   0.00280
  39        2PX        -0.00457  -0.01064  -0.00152  -0.03022  -0.02536
  40        2PY         0.05106   0.00591   0.00156   0.02126  -0.00556
  41        2PZ         0.05560  -0.07969  -0.00187   0.00232  -0.20148
  42        3S          0.00237   0.00760  -0.00578  -0.04163  -0.00356
  43        3PX        -0.00749  -0.01700  -0.00682  -0.05308  -0.04532
  44        3PY         0.07147   0.00781   0.00348   0.03428  -0.00978
  45        3PZ         0.08313  -0.11634  -0.00162   0.00549  -0.32849
  46        4S         -0.03111  -0.04490  -0.02533  -0.03515  -0.07117
  47        4PX         0.00060  -0.01387  -0.01287   0.07912  -0.03622
  48        4PY         0.00352   0.01236   0.01287   0.01533  -0.04500
  49        4PZ         0.07810  -0.11725  -0.03628  -0.00712  -0.43296
  50        5D 0       -0.00058  -0.00452   0.00765  -0.00210  -0.00488
  51        5D+1       -0.00448   0.01463  -0.02094  -0.00115  -0.01258
  52        5D-1        0.01163  -0.02094  -0.04381  -0.00744   0.02173
  53        5D+2       -0.01605  -0.00200  -0.00170  -0.00265  -0.00682
  54        5D-2       -0.00860  -0.00309  -0.00381   0.06805   0.00280
  55 4   O  1S          0.00990   0.00230   0.00002  -0.00111  -0.00429
  56        2S          0.01617   0.00379   0.00000  -0.00187  -0.00690
  57        2PX        -0.00394  -0.00873  -0.01097   0.27234   0.02089
  58        2PY        -0.06773  -0.02013  -0.00523  -0.01082  -0.00371
  59        2PZ         0.07675  -0.11935  -0.17472  -0.02718   0.14836
  60        3S         -0.05032  -0.01216   0.00088   0.00683   0.01858
  61        3PX        -0.00473  -0.01265  -0.01573   0.38724   0.02726
  62        3PY        -0.09095  -0.02693  -0.00740  -0.01497  -0.00378
  63        3PZ         0.11173  -0.17327  -0.24854  -0.03804   0.19765
  64        4S         -0.05803  -0.01312  -0.00756   0.00486   0.07749
  65        4PX        -0.00313  -0.00937  -0.01589   0.39342   0.04801
  66        4PY        -0.08391  -0.02730  -0.00491  -0.01181  -0.02307
  67        4PZ         0.09413  -0.15207  -0.25802  -0.04077   0.33663
  68        5D 0       -0.00266  -0.00162  -0.00030  -0.00023  -0.00096
  69        5D+1       -0.00003   0.00028  -0.00055   0.00057  -0.00132
  70        5D-1       -0.00816   0.01180   0.01031   0.00131   0.00661
  71        5D+2       -0.00437  -0.00106  -0.00029  -0.00110  -0.00142
  72        5D-2        0.00036   0.00113   0.00066  -0.01369   0.00065
  73 5   C  1S          0.00566  -0.00130   0.00093   0.01568  -0.01348
  74        2S          0.00911  -0.00202   0.00182   0.02484  -0.02126
  75        2PX        -0.06509   0.00077   0.00377   0.07525  -0.00514
  76        2PY        -0.11537  -0.03589   0.00075  -0.05971  -0.01982
  77        2PZ        -0.03789   0.12427  -0.00709  -0.01711  -0.02756
  78        3S         -0.03103   0.00375  -0.01333  -0.07091   0.05397
  79        3PX        -0.09443   0.00170   0.00323   0.10592  -0.00594
  80        3PY        -0.16556  -0.05001  -0.00492  -0.08813  -0.01825
  81        3PZ        -0.05651   0.17613  -0.01414  -0.02459  -0.03000
  82        4S         -0.02644   0.03709   0.06263  -0.21367   0.32271
  83        4PX        -0.07335  -0.00286   0.03959   0.12365  -0.08449
  84        4PY        -0.12149  -0.02347   0.06595  -0.08229  -0.09697
  85        4PZ        -0.05108   0.15655   0.05541  -0.06469  -0.34701
  86        5D 0        0.00216  -0.02301   0.00062   0.00102  -0.01720
  87        5D+1       -0.01256   0.00327  -0.00117  -0.00059   0.02949
  88        5D-1       -0.00558  -0.01069  -0.00151  -0.00132  -0.01333
  89        5D+2       -0.01925  -0.00651  -0.00049  -0.00369   0.00674
  90        5D-2        0.00291   0.00789   0.00002   0.00034   0.00122
  91 6   H  1S         -0.03056   0.03146  -0.06084   0.00586  -0.02424
  92        2S         -0.04946   0.05417  -0.10004   0.00815  -0.08801
  93        3S         -0.02527   0.02961  -0.05663   0.01198  -0.28493
  94        4PX        -0.00151   0.00271  -0.00081  -0.00004   0.00120
  95        4PY        -0.00118   0.00129  -0.00219   0.00164  -0.00109
  96        4PZ         0.00188  -0.00128   0.00157   0.00029  -0.00105
  97 7   H  1S          0.00262  -0.00122  -0.00224   0.00927  -0.00151
  98        2S          0.00571  -0.00282  -0.00647  -0.00331  -0.01090
  99        3S         -0.00874  -0.00683  -0.00889  -0.08715  -0.03844
 100        4PX         0.00049   0.00032  -0.00095  -0.00801  -0.00069
 101        4PY        -0.00068  -0.00010   0.00012  -0.00337  -0.00003
 102        4PZ        -0.00175   0.00219  -0.00437   0.00131  -0.00096
 103 8   H  1S          0.02047  -0.03441   0.06439  -0.00026   0.02316
 104        2S          0.03321  -0.06149   0.10309  -0.00135   0.08040
 105        3S          0.01844  -0.03446   0.06254   0.00590   0.09070
 106        4PX         0.00218  -0.00258   0.00076  -0.00018  -0.00205
 107        4PY         0.00086  -0.00166   0.00218   0.00136   0.00358
 108        4PZ         0.00001  -0.00140   0.00152  -0.00048   0.00125
 109 9   H  1S          0.00434  -0.00505  -0.00176  -0.01883  -0.00835
 110        2S          0.02099  -0.00410  -0.00779  -0.04647   0.00827
 111        3S          0.01498   0.00144  -0.00634  -0.02632  -0.21308
 112        4PX         0.00118   0.00051   0.00247   0.00689   0.00328
 113        4PY         0.00003  -0.00127   0.00002  -0.00273   0.00644
 114        4PZ         0.00263  -0.00419   0.02091  -0.00176   0.01439
 115 10  H  1S          0.02999  -0.11690   0.00742   0.01790  -0.05170
[...]
     4  O   -0.013033  -0.096657   0.656382   7.871500  -0.094121  -0.000009
     5  C    0.008252  -0.086173   0.296546  -0.094121   5.150375  -0.000391
     6  H    0.406070  -0.033403   0.003547  -0.000009  -0.000391   0.576897
     7  H    0.399507  -0.033154  -0.012489   0.031441   0.003972  -0.024489
     8  H    0.409522  -0.036133   0.003122  -0.000025  -0.000427  -0.038098
     9  H   -0.035347   0.355642  -0.027136   0.004111   0.000440  -0.003353
    10  H   -0.000539  -0.000620  -0.025939   0.000714   0.389517  -0.000030
    11  H   -0.000132   0.005527  -0.039441   0.004055   0.380192  -0.000047
    12  C   -0.000342   0.002153  -0.050724   0.004271   0.327928   0.000076
    13  H    0.000017  -0.000224   0.008180   0.000125  -0.034667  -0.000001
    14  H    0.000022   0.001485  -0.008551   0.017297  -0.038357   0.000002
    15  H   -0.000048   0.000501  -0.003314   0.000409  -0.036475  -0.000008
               7          8          9         10         11         12
     1  C    0.399507   0.409522  -0.035347  -0.000539  -0.000132  -0.000342
     2  N   -0.033154  -0.036133   0.355642  -0.000620   0.005527   0.002153
     3  C   -0.012489   0.003122  -0.027136  -0.025939  -0.039441  -0.050724
     4  O    0.031441  -0.000025   0.004111   0.000714   0.004055   0.004271
     5  C    0.003972  -0.000427   0.000440   0.389517   0.380192   0.327928
     6  H   -0.024489  -0.038098  -0.003353  -0.000030  -0.000047   0.000076
     7  H    0.512572  -0.025562   0.007098  -0.000123  -0.000440  -0.000094
     8  H   -0.025562   0.577140  -0.003629   0.000172   0.000055  -0.000027
     9  H    0.007098  -0.003629   0.485173   0.000036   0.000964   0.000072
    10  H   -0.000123   0.000172   0.000036   0.561738  -0.029079  -0.030427
    11  H   -0.000440   0.000055   0.000964  -0.029079   0.616278  -0.037562
    12  C   -0.000094  -0.000027   0.000072  -0.030427  -0.037562   4.870140
    13  H    0.000004  -0.000001  -0.000043  -0.007145  -0.004915   0.403502
    14  H   -0.000135   0.000000  -0.000145  -0.004371   0.009087   0.402218
    15  H   -0.000010   0.000005  -0.000008   0.008340  -0.006826   0.402928
              13         14         15
     1  C    0.000017   0.000022  -0.000048
     2  N   -0.000224   0.001485   0.000501
     3  C    0.008180  -0.008551  -0.003314
     4  O    0.000125   0.017297   0.000409
     5  C   -0.034667  -0.038357  -0.036475
     6  H   -0.000001   0.000002  -0.000008
     7  H    0.000004  -0.000135  -0.000010
     8  H   -0.000001   0.000000   0.000005
     9  H   -0.000043  -0.000145  -0.000008
    10  H   -0.007145  -0.004371   0.008340
    11  H   -0.004915   0.009087  -0.006826
    12  C    0.403502   0.402218   0.402928
    13  H    0.590783  -0.027180  -0.031215
    14  H   -0.027180   0.543053  -0.026693
    15  H   -0.031215  -0.026693   0.584384
 Mulliken charges:
               1
     1  C   -0.173676
     2  N   -0.409891
     3  C    0.362483
     4  O   -0.386459
     5  C   -0.266612
     6  H    0.113238
     7  H    0.141903
     8  H    0.113885
     9  H    0.216125
    10  H    0.137755
    11  H    0.102284
    12  C   -0.294112
    13  H    0.102779
    14  H    0.132269
    15  H    0.108031
 Sum of Mulliken charges =   0.00000
 Mulliken charges with hydrogens summed into heavy atoms:
               1
     1  C    0.195350
     2  N   -0.193767
     3  C    0.362483
     4  O   -0.386459
     5  C   -0.026573
    12  C    0.048967
 Atomic Valencies and Mayer Atomic Bond Orders:
               1          2          3          4          5          6
     1  C    3.839156   0.944838  -0.015331   0.001993   0.011854   0.971274
     2  N    0.944838   3.138750   1.175369   0.079411   0.001725  -0.004963
     3  C   -0.015331   1.175369   3.997099   1.925937   0.933415   0.008640
     4  O    0.001993   0.079411   1.925937   2.142749  -0.011857   0.001569
     5  C    0.011854   0.001725   0.933415  -0.011857   3.847076   0.000909
     6  H    0.971274  -0.004963   0.008640   0.001569   0.000909   0.960908
     7  H    0.952455   0.000238  -0.007494   0.055476   0.003634  -0.006826
     8  H    0.971974  -0.006239   0.008595   0.001845   0.000803  -0.009796
     9  H   -0.002976   0.929787  -0.001521   0.019890   0.001722  -0.000675
    10  H    0.000627   0.007527  -0.002017   0.008167   0.948708   0.000250
    11  H    0.000259   0.003592  -0.010837   0.014004   0.962445   0.000063
    12  C    0.001798   0.004948  -0.019421   0.013641   1.006447   0.000359
    13  H    0.000309   0.000364   0.004958   0.002346  -0.002626   0.000087
    14  H    0.000064   0.000880  -0.002221   0.029220  -0.003757   0.000001
    15  H    0.000018   0.001272  -0.000973   0.001107  -0.006346   0.000017
               7          8          9         10         11         12
     1  C    0.952455   0.971974  -0.002976   0.000627   0.000259   0.001798
     2  N    0.000238  -0.006239   0.929787   0.007527   0.003592   0.004948
     3  C   -0.007494   0.008595  -0.001521  -0.002017  -0.010837  -0.019421
     4  O    0.055476   0.001845   0.019890   0.008167   0.014004   0.013641
     5  C    0.003634   0.000803   0.001722   0.948708   0.962445   1.006447
     6  H   -0.006826  -0.009796  -0.000675   0.000250   0.000063   0.000359
     7  H    1.002301  -0.007106   0.011225   0.000014   0.000510   0.000045
     8  H   -0.007106   0.960311  -0.000653   0.000630   0.000151  -0.000003
     9  H    0.011225  -0.000653   0.960338   0.000107   0.002718   0.000247
    10  H    0.000014   0.000630   0.000107   0.953559  -0.010168  -0.006539
    11  H    0.000510   0.000151   0.002718  -0.010168   0.959682  -0.009051
    12  C    0.000045  -0.000003   0.000247  -0.006539  -0.009051   3.906659
    13  H   -0.000005   0.000004   0.000119  -0.001542  -0.001301   0.974713
    14  H    0.000157   0.000001   0.000331  -0.000983   0.009044   0.963261
    15  H   -0.000023   0.000105   0.000017   0.008779  -0.001748   0.976215
              13         14         15
     1  C    0.000309   0.000064   0.000018
     2  N    0.000364   0.000880   0.001272
     3  C    0.004958  -0.002221  -0.000973
     4  O    0.002346   0.029220   0.001107
     5  C   -0.002626  -0.003757  -0.006346
     6  H    0.000087   0.000001   0.000017
     7  H   -0.000005   0.000157  -0.000023
     8  H    0.000004   0.000001   0.000105
     9  H    0.000119   0.000331   0.000017
    10  H   -0.001542  -0.000983   0.008779
    11  H   -0.001301   0.009044  -0.001748
    12  C    0.974713   0.963261   0.976215
    13  H    0.961350  -0.007503  -0.008573
    14  H   -0.007503   0.980639  -0.007857
    15  H   -0.008573  -0.007857   0.962011
 Lowdin Atomic Charges:
               1
     1  C    0.033478
     2  N    0.077250
     3  C   -0.057846
     4  O   -0.137262
     5  C   -0.028852
     6  H    0.005239
     7  H    0.018977
     8  H    0.004800
     9  H    0.036129
    10  H    0.022958
    11  H    0.000678
    12  C   -0.004358
    13  H    0.005783
    14  H    0.014530
    15  H    0.008495
 Sum of Lowdin charges  =   0.00000
 Lowdin atomic charges with hydrogens summed into heavy atoms:
               1
     1  C    0.062494
     2  N    0.113379
     3  C   -0.057846
     4  O   -0.137262
     5  C   -0.005217
     6  H    0.000000
     7  H    0.000000
     8  H    0.000000
     9  H    0.000000
    10  H    0.000000
    11  H    0.000000
    12  C    0.024450
    13  H    0.000000
    14  H    0.000000
    15  H    0.000000
 Sum of Lowdin charges  =   0.00000
 Dipole moment from Lowdin charges (Debye):
    X=    -1.0359    Y=    -1.3063    Z=     0.1654  Tot=     1.6753
 Electronic spatial extent (au):  <R**2>=            727.9790
 Charge=              0.0000 electrons
 Dipole moment (field-independent basis, Debye):
    X=             -0.9288    Y=             -3.4860    Z=              0.1307  Tot=              3.6100
 Quadrupole moment (field-independent basis, Debye-Ang):
   XX=            -33.2819   YY=            -39.5821   ZZ=            -37.7327
   XY=              0.7213   XZ=             -0.6711   YZ=              0.4435
 Traceless Quadrupole moment (field-independent basis, Debye-Ang):
   XX=              3.5837   YY=             -2.7166   ZZ=             -0.8671
   XY=              0.7213   XZ=             -0.6711   YZ=              0.4435
 Octapole moment (field-independent basis, Debye-Ang**2):
  XXX=            -13.1195  YYY=             -8.1374  ZZZ=             -0.8623  XYY=             -4.0186
  XXY=              0.2039  XXZ=             -0.5188  XZZ=             -1.0680  YZZ=              0.8468
  YYZ=              0.8563  XYZ=              0.2176
 Hexadecapole moment (field-independent basis, Debye-Ang**3):
 XXXX=           -723.2771 YYYY=           -161.2584 ZZZZ=            -68.7933 XXXY=              0.5563
 XXXZ=             -4.7828 YYYX=              7.3516 YYYZ=             -1.2760 ZZZX=             -1.7396
 ZZZY=             -0.2600 XXYY=           -147.7198 XXZZ=           -133.9327 YYZZ=            -40.6274
 XXYZ=              0.0708 YYXZ=             -1.0166 ZZXY=              1.1061
 N-N= 2.428278101956D+02 E-N=-1.157511895691D+03  KE= 2.867157705036D+02
 Orbital energies and kinetic energies (alpha):
                                 1                 2
   1         O               -19.075056         29.128229
   2         O               -14.336099         22.050292
   3         O               -10.265303         15.961355
   4         O               -10.201090         15.958878
   5         O               -10.181194         15.957892
   6         O               -10.159885         15.957294
   7         O                -1.029741          2.488553
   8         O                -0.919900          2.112584
   9         O                -0.778928          1.414292
  10         O                -0.710240          1.485672
  11         O                -0.633641          1.441777
  12         O                -0.581498          1.604153
  13         O                -0.506307          1.346708
  14         O                -0.474711          1.372698
  15         O                -0.462070          1.199236
  16         O                -0.439587          1.047476
  17         O                -0.419489          1.695061
  18         O                -0.392209          1.448796
  19         O                -0.388827          1.341799
  20         O                -0.365247          1.382915
  21         O                -0.362211          1.346821
  22         O                -0.342429          1.332082
  23         O                -0.255625          1.949812
  24         O                -0.251515          2.333513
  25         V                 0.023507          1.628600
  26         V                 0.028935          0.855369
  27         V                 0.061666          0.699741
  28         V                 0.070950          0.830196
  29         V                 0.091787          0.652601
  30         V                 0.109773          0.697823
  31         V                 0.115118          0.771155
  32         V                 0.120729          0.717640
  33         V                 0.133668          0.796230
  34         V                 0.147991          0.847774
  35         V                 0.174618          1.420940
  36         V                 0.216904          1.287304
  37         V                 0.231210          1.583409
  38         V                 0.269264          1.173377
  39         V                 0.289035          0.954363
  40         V                 0.297148          0.914591
  41         V                 0.300707          0.993753
  42         V                 0.325907          1.011156
  43         V                 0.347458          1.242685
  44         V                 0.365960          1.348572
  45         V                 0.383706          1.670786
  46         V                 0.422759          1.992339
  47         V                 0.455651          1.837824
  48         V                 0.500558          2.109856
  49         V                 0.507887          1.684081
  50         V                 0.534734          2.031334
  51         V                 0.556257          1.993888
  52         V                 0.559887          1.948019
  53         V                 0.572761          1.685828
  54         V                 0.579552          2.027831
  55         V                 0.585066          1.821553
  56         V                 0.592028          1.814938
  57         V                 0.600081          1.988781
  58         V                 0.611129          1.801205
  59         V                 0.627055          1.925441
  60         V                 0.633194          2.482348
  61         V                 0.671107          2.031964
  62         V                 0.692133          2.105775
  63         V                 0.716236          2.036763
  64         V                 0.760401          1.979951
  65         V                 0.783658          2.276332
  66         V                 0.843280          2.134736
  67         V                 0.939933          2.004892
  68         V                 0.955489          2.180995
  69         V                 0.981296          2.173369
  70         V                 1.024178          2.310130
  71         V                 1.037375          2.047061
  72         V                 1.049428          2.055022
  73         V                 1.106129          2.310163
  74         V                 1.207887          2.577818
  75         V                 1.254303          2.041437
  76         V                 1.275152          2.300780
  77         V                 1.304004          2.312147
  78         V                 1.346119          2.291882
  79         V                 1.421919          2.472448
  80         V                 1.441182          2.090072
  81         V                 1.446078          2.386852
  82         V                 1.464481          2.235423
  83         V                 1.470338          2.388617
  84         V                 1.478287          2.368683
  85         V                 1.487965          2.392463
  86         V                 1.493885          2.474775
  87         V                 1.533953          2.429398
  88         V                 1.548149          2.628330
  89         V                 1.575246          2.554784
  90         V                 1.599071          2.926830
  91         V                 1.632330          3.344796
  92         V                 1.660409          2.755556
  93         V                 1.679707          2.670497
  94         V                 1.708346          2.992293
  95         V                 1.713564          2.629405
  96         V                 1.722304          2.797270
  97         V                 1.752628          2.998105
  98         V                 1.783834          3.001028
  99         V                 1.827461          3.105841
 100         V                 1.882674          3.044748
 101         V                 1.897147          3.311936
 102         V                 1.951375          3.568961
 103         V                 2.009260          3.303388
 104         V                 2.029315          3.205199
 105         V                 2.039354          3.436526
 106         V                 2.069061          3.272988
 107         V                 2.105544          3.329345
 108         V                 2.174800          3.620532
 109         V                 2.205170          3.915831
 110         V                 2.266056          3.882111
 111         V                 2.291826          3.886084
 112         V                 2.330119          3.955909
 113         V                 2.332897          3.981553
 114         V                 2.347165          3.889376
 115         V                 2.393234          4.257749
 116         V                 2.416902          3.936626
 117         V                 2.435712          3.965297
 118         V                 2.463791          4.174720
 119         V                 2.475097          4.502409
 120         V                 2.495279          4.172750
 121         V                 2.508235          4.078523
 122         V                 2.538054          4.307938
 123         V                 2.570064          4.203616
 124         V                 2.599475          4.514400
 125         V                 2.617879          4.201780
 126         V                 2.640919          4.514793
 127         V                 2.650764          4.373951
 128         V                 2.707230          4.320155
 129         V                 2.753783          4.922065
 130         V                 2.777334          4.667384
 131         V                 2.819394          5.258469
 132         V                 2.832285          4.714115
 133         V                 2.875279          4.730698
 134         V                 2.933556          4.828899
 135         V                 2.939612          4.892032
 136         V                 3.012767          6.172639
 137         V                 3.108325          5.210427
 138         V                 3.261857          6.299919
 139         V                 3.346000          6.721962
 140         V                 3.350569          5.268636
 141         V                 3.511245          6.357125
 142         V                 3.583417          6.045284
 143         V                 3.697968          6.930813
 144         V                 3.734403          6.667995
 145         V                 3.773252          6.308282
 146         V                 3.793149          6.469564
 147         V                 3.819508          6.334647
 148         V                 3.853363          6.519738
 149         V                 3.871256          8.183657
 150         V                 4.075915          7.270808
 151         V                 4.237642          7.491273
 152         V                 4.815900          9.317067
 153         V                 4.937301         11.646358
 154         V                 4.944634          9.795365
 155         V                 5.094701         11.610602
 156         V                 5.663585         11.817432
 157         V                23.791072         60.291153
 158         V                23.842388         60.293799
 159         V                23.879207         60.331763
 160         V                23.931560         60.356449
 161         V                35.567812         89.004288
 162         V                50.010285        123.694662
 Total kinetic energy from orbitals= 2.867157705036D+02

 Test job not archived.
 1\1\GINC-KADET27\SP\RB3LYP\6-311G(d,p)\C4H9N1O1\MDOROHUN\15-Apr-2026\0
 \\# B3LYP/6-311G(d,p) GFInput Pop=Full IOP(6/80=1)\\ch3ch2_conh_ch3 za
 mkniętopowłokowa cząsteczka\\0,1\C,0,4.613246,-2.982599,4.868557\N,
 0,3.376222,-3.511133,4.32385\C,0,2.6487,-2.856681,3.366794\O,0,3.00224
 9,-1.790702,2.875971\C,0,1.338792,-3.540218,2.970775\H,0,5.443731,-3.6
 82907,4.719157\H,0,4.828047,-2.054565,4.336886\H,0,4.521166,-2.768458,
 5.940614\H,0,3.022004,-4.384429,4.685583\H,0,0.543888,-3.087523,3.5800
 91\H,0,1.361613,-4.606489,3.231516\C,0,1.020788,-3.348363,1.485995\H,0
 ,0.028335,-3.743763,1.245772\H,0,1.050581,-2.285718,1.232882\H,0,1.754
 754,-3.862123,0.855505\\Version=ES64L-G09RevD.01\State=1-A\HF=-287.923
 513\RMSD=9.995e-09\Dipole=-0.1019029,-1.171711,0.7961842\Quadrupole=1.
 4190647,-2.019929,0.6008643,-0.5884533,1.6918958,0.0764699\PG=C01 [X(C
 4H9N1O1)]\\@


 The most important thing in communication is to hear what isn't being said.
 -- Peter F. Drucker
 Job cpu time:       0 days  0 hours  0 minutes 12.1 seconds.
 File lengths (MBytes):  RWF=     16 Int=      0 D2E=      0 Chk=      2 Scr=      1
 Normal termination of Gaussian 09 at Wed Apr 15 13:16:44 2026.
