 Entering Gaussian System, Link 0=/opt/g09/g09/g09
 Input=ch3ch2_nhco_ch3_rad.inp
 Output=ch3ch2_nhco_ch3_rad.log
 Initial command:
 /opt/g09/g09/l1.exe "/tmp/Gau-5870.inp" -scrdir="/tmp/"
 Entering Link 1 = /opt/g09/g09/l1.exe PID=      5872.
  
 Copyright (c) 1988,1990,1992,1993,1995,1998,2003,2009,2013,
            Gaussian, Inc.  All Rights Reserved.
  
 This is part of the Gaussian(R) 09 program.  It is based on
 the Gaussian(R) 03 system (copyright 2003, Gaussian, Inc.),
 the Gaussian(R) 98 system (copyright 1998, Gaussian, Inc.),
 the Gaussian(R) 94 system (copyright 1995, Gaussian, Inc.),
 the Gaussian 92(TM) system (copyright 1992, Gaussian, Inc.),
 the Gaussian 90(TM) system (copyright 1990, Gaussian, Inc.),
 the Gaussian 88(TM) system (copyright 1988, Gaussian, Inc.),
 the Gaussian 86(TM) system (copyright 1986, Carnegie Mellon
 University), and the Gaussian 82(TM) system (copyright 1983,
 Carnegie Mellon University). Gaussian is a federally registered
 trademark of Gaussian, Inc.
  
 This software contains proprietary and confidential information,
 including trade secrets, belonging to Gaussian, Inc.
  
 This software is provided under written license and may be
 used, copied, transmitted, or stored only in accord with that
 written license.
  
 The following legend is applicable only to US Government
 contracts under FAR:
  
                    RESTRICTED RIGHTS LEGEND
  
 Use, reproduction and disclosure by the US Government is
 subject to restrictions as set forth in subparagraphs (a)
 and (c) of the Commercial Computer Software - Restricted
 Rights clause in FAR 52.227-19.
  
 Gaussian, Inc.
 340 Quinnipiac St., Bldg. 40, Wallingford CT 06492
  
  
 ---------------------------------------------------------------
 Warning -- This program may not be used in any manner that
 competes with the business of Gaussian, Inc. or will provide
 assistance to any competitor of Gaussian, Inc.  The licensee
 of this program is prohibited from giving any competitor of
 Gaussian, Inc. access to this program.  By using this program,
 the user acknowledges that Gaussian, Inc. is engaged in the
 business of creating and licensing software in the field of
 computational chemistry and represents and warrants to the
 licensee that it is not a competitor of Gaussian, Inc. and that
 it will not use this program in any manner prohibited above.
 ---------------------------------------------------------------
  

 Cite this work as:
 Gaussian 09, Revision D.01,
 M. J. Frisch, G. W. Trucks, H. B. Schlegel, G. E. Scuseria, 
 M. A. Robb, J. R. Cheeseman, G. Scalmani, V. Barone, B. Mennucci, 
 G. A. Petersson, H. Nakatsuji, M. Caricato, X. Li, H. P. Hratchian, 
 A. F. Izmaylov, J. Bloino, G. Zheng, J. L. Sonnenberg, M. Hada, 
 M. Ehara, K. Toyota, R. Fukuda, J. Hasegawa, M. Ishida, T. Nakajima, 
 Y. Honda, O. Kitao, H. Nakai, T. Vreven, J. A. Montgomery, Jr., 
 J. E. Peralta, F. Ogliaro, M. Bearpark, J. J. Heyd, E. Brothers, 
 K. N. Kudin, V. N. Staroverov, T. Keith, R. Kobayashi, J. Normand, 
 K. Raghavachari, A. Rendell, J. C. Burant, S. S. Iyengar, J. Tomasi, 
 M. Cossi, N. Rega, J. M. Millam, M. Klene, J. E. Knox, J. B. Cross, 
 V. Bakken, C. Adamo, J. Jaramillo, R. Gomperts, R. E. Stratmann, 
 O. Yazyev, A. J. Austin, R. Cammi, C. Pomelli, J. W. Ochterski, 
 R. L. Martin, K. Morokuma, V. G. Zakrzewski, G. A. Voth, 
 P. Salvador, J. J. Dannenberg, S. Dapprich, A. D. Daniels, 
 O. Farkas, J. B. Foresman, J. V. Ortiz, J. Cioslowski, 
 and D. J. Fox, Gaussian, Inc., Wallingford CT, 2013.
 
 ******************************************
 Gaussian 09:  ES64L-G09RevD.01 24-Apr-2013
                15-Apr-2026 
 ******************************************
 -------------------------------------------------
 # UB3LYP/6-311G(d,p) GFInput Pop=Full IOP(6/80=1)
 -------------------------------------------------
 1/38=1/1;
 2/12=2,17=6,18=5,40=1/2;
 3/5=4,6=6,7=101,11=2,16=1,24=10,25=1,30=1,74=-5,116=2/1,2,3;
 4//1;
 5/5=2,38=5/2;
 6/7=3,28=1,80=1/1;
 99/5=1,9=1/99;
 -------------------------
 ch3ch_nhco_ch3_rad rodnik
 -------------------------
 Symbolic Z-matrix:
 Charge =  0 Multiplicity = 2
 C                     4.56018  -2.99262   4.85796 
 C                     3.34418  -3.85528   4.56616 
 N                     2.25289  -3.64053   5.38996 
 C                     1.03783  -4.28884   5.25276 
 C                    -0.00243  -4.14318   6.30692 
 O                     3.31963  -4.68262   3.66346 
 H                     4.44586  -2.34521   5.73395 
 H                     5.42798  -3.64209   5.00981 
 H                     4.77365  -2.36642   3.98498 
 H                     2.3338   -2.93226   6.10822 
 H                     1.02069  -5.06142   4.49706 
 H                    -0.97282  -4.48524   5.93381 
 H                     0.217    -4.72843   7.21823 
 H                    -0.12422  -3.09698   6.62538 
 
                          Input orientation:                          
 ---------------------------------------------------------------------
 Center     Atomic      Atomic             Coordinates (Angstroms)
 Number     Number       Type             X           Y           Z
 ---------------------------------------------------------------------
      1          6           0        4.560182   -2.992620    4.857959
      2          6           0        3.344178   -3.855283    4.566160
      3          7           0        2.252891   -3.640525    5.389958
      4          6           0        1.037826   -4.288839    5.252761
      5          6           0       -0.002434   -4.143176    6.306924
      6          8           0        3.319625   -4.682618    3.663461
      7          1           0        4.445864   -2.345214    5.733952
      8          1           0        5.427981   -3.642090    5.009806
      9          1           0        4.773646   -2.366417    3.984978
     10          1           0        2.333804   -2.932263    6.108220
     11          1           0        1.020692   -5.061416    4.497061
     12          1           0       -0.972824   -4.485245    5.933812
     13          1           0        0.217003   -4.728426    7.218225
     14          1           0       -0.124224   -3.096980    6.625384
 ---------------------------------------------------------------------
                    Distance matrix (angstroms):
                    1          2          3          4          5
     1  C    0.000000
     2  C    1.519210   0.000000
     3  N    2.454872   1.384078   0.000000
     4  C    3.773996   2.445128   1.384022   0.000000
     5  C    4.923489   3.783246   2.485956   1.488159   0.000000
     6  O    2.412861   1.224725   2.281375   2.808477   4.279599
     7  H    1.095247   2.204032   2.570076   3.952714   4.832010
     8  H    1.094506   2.141146   3.197767   4.444184   5.605623
     9  H    1.095351   2.144265   3.154604   4.388545   5.599933
    10  H    2.554125   2.061740   1.011970   2.061957   2.638902
    11  H    4.115599   2.618801   2.081949   1.080857   2.272786
    12  H    5.830913   4.572071   3.378545   2.131929   1.094477
    13  H    5.238996   4.192261   2.944644   2.174865   1.105052
    14  H    5.007828   4.104295   2.733568   2.157541   1.100353
                    6          7          8          9         10
     6  O    0.000000
     7  H    3.319458   0.000000
     8  H    2.709337   1.780682   0.000000
     9  H    2.753604   1.779551   1.762319   0.000000
    10  H    3.164243   2.223848   3.359211   3.283469   0.000000
    11  H    2.474565   4.543067   4.658497   4.648646   2.975464
    12  H    4.859894   5.829396   6.521886   6.427231   3.657316
    13  H    4.718549   5.076025   5.762945   6.065968   2.989843
    14  H    4.811167   4.716514   5.808117   5.612005   2.517239
                   11         12         13         14
    11  H    0.000000
    12  H    2.523952   0.000000
    13  H    2.856839   1.767637   0.000000
    14  H    3.114418   1.767957   1.769043   0.000000
 Stoichiometry    C4H8NO(2)
 Framework group  C1[X(C4H8NO)]
 Deg. of freedom    36
 Full point group                 C1      NOp   1
 Largest Abelian subgroup         C1      NOp   1
 Largest concise Abelian subgroup C1      NOp   1
                         Standard orientation:                         
 ---------------------------------------------------------------------
 Center     Atomic      Atomic             Coordinates (Angstroms)
 Number     Number       Type             X           Y           Z
 ---------------------------------------------------------------------
      1          6           0       -2.181886   -0.862924    0.014086
      2          6           0       -1.052274    0.152899    0.005213
      3          7           0        0.224352   -0.379810   -0.040801
      4          6           0        1.379783    0.379241   -0.106674
      5          6           0        2.706289   -0.275703    0.054716
      6          8           0       -1.247631    1.361657    0.031528
      7          1           0       -1.843132   -1.903906    0.048276
      8          1           0       -2.824131   -0.672060    0.879555
      9          1           0       -2.796568   -0.723764   -0.881790
     10          1           0        0.316309   -1.387019   -0.074787
     11          1           0        1.224807    1.445953   -0.026930
     12          1           0        3.504422    0.393106   -0.282270
     13          1           0        2.933151   -0.546276    1.101838
     14          1           0        2.784256   -1.201695   -0.534551
 ---------------------------------------------------------------------
 Rotational constants (GHZ):      8.8448227      1.9441884      1.6285243
 Standard basis: 6-311G(d,p) (5D, 7F)
 AO basis set in the form of general basis input (Overlap normalization):
      1 0
 S   6 1.00       0.000000000000
      0.4563240000D+04  0.1966650249D-02
      0.6820240000D+03  0.1523060193D-01
      0.1549730000D+03  0.7612690966D-01
      0.4445530000D+02  0.2608010331D+00
      0.1302900000D+02  0.6164620782D+00
      0.1827730000D+01  0.2210060280D+00
 SP   3 1.00       0.000000000000
      0.2096420000D+02  0.1146600807D+00  0.4024869267D-01
      0.4803310000D+01  0.9199996477D+00  0.2375939567D+00
      0.1459330000D+01 -0.3030682134D-02  0.8158538515D+00
 SP   1 1.00       0.000000000000
      0.4834560000D+00  0.1000000000D+01  0.1000000000D+01
 SP   1 1.00       0.000000000000
      0.1455850000D+00  0.1000000000D+01  0.1000000000D+01
 D   1 1.00       0.000000000000
      0.6260000000D+00  0.1000000000D+01
 ****
      2 0
 S   6 1.00       0.000000000000
      0.4563240000D+04  0.1966650249D-02
      0.6820240000D+03  0.1523060193D-01
      0.1549730000D+03  0.7612690966D-01
      0.4445530000D+02  0.2608010331D+00
      0.1302900000D+02  0.6164620782D+00
      0.1827730000D+01  0.2210060280D+00
 SP   3 1.00       0.000000000000
      0.2096420000D+02  0.1146600807D+00  0.4024869267D-01
      0.4803310000D+01  0.9199996477D+00  0.2375939567D+00
      0.1459330000D+01 -0.3030682134D-02  0.8158538515D+00
 SP   1 1.00       0.000000000000
      0.4834560000D+00  0.1000000000D+01  0.1000000000D+01
 SP   1 1.00       0.000000000000
      0.1455850000D+00  0.1000000000D+01  0.1000000000D+01
 D   1 1.00       0.000000000000
      0.6260000000D+00  0.1000000000D+01
 ****
      3 0
 S   6 1.00       0.000000000000
      0.6293480000D+04  0.1969788147D-02
      0.9490440000D+03  0.1496128592D-01
      0.2187760000D+03  0.7350053084D-01
      0.6369160000D+02  0.2489367658D+00
      0.1882820000D+02  0.6024594331D+00
      0.2720230000D+01  0.2562017589D+00
 SP   3 1.00       0.000000000000
      0.3063310000D+02  0.1119060795D+00  0.3831191864D-01
      0.7026140000D+01  0.9216666549D+00  0.2374031155D+00
      0.2112050000D+01 -0.2569191826D-02  0.8175923978D+00
 SP   1 1.00       0.000000000000
      0.6840090000D+00  0.1000000000D+01  0.1000000000D+01
 SP   1 1.00       0.000000000000
      0.2008780000D+00  0.1000000000D+01  0.1000000000D+01
 D   1 1.00       0.000000000000
      0.9130000000D+00  0.1000000000D+01
 ****
      4 0
 S   6 1.00       0.000000000000
      0.4563240000D+04  0.1966650249D-02
      0.6820240000D+03  0.1523060193D-01
      0.1549730000D+03  0.7612690966D-01
      0.4445530000D+02  0.2608010331D+00
      0.1302900000D+02  0.6164620782D+00
      0.1827730000D+01  0.2210060280D+00
 SP   3 1.00       0.000000000000
      0.2096420000D+02  0.1146600807D+00  0.4024869267D-01
      0.4803310000D+01  0.9199996477D+00  0.2375939567D+00
      0.1459330000D+01 -0.3030682134D-02  0.8158538515D+00
 SP   1 1.00       0.000000000000
      0.4834560000D+00  0.1000000000D+01  0.1000000000D+01
 SP   1 1.00       0.000000000000
      0.1455850000D+00  0.1000000000D+01  0.1000000000D+01
 D   1 1.00       0.000000000000
      0.6260000000D+00  0.1000000000D+01
 ****
      5 0
 S   6 1.00       0.000000000000
      0.4563240000D+04  0.1966650249D-02
      0.6820240000D+03  0.1523060193D-01
      0.1549730000D+03  0.7612690966D-01
      0.4445530000D+02  0.2608010331D+00
      0.1302900000D+02  0.6164620782D+00
      0.1827730000D+01  0.2210060280D+00
 SP   3 1.00       0.000000000000
      0.2096420000D+02  0.1146600807D+00  0.4024869267D-01
      0.4803310000D+01  0.9199996477D+00  0.2375939567D+00
      0.1459330000D+01 -0.3030682134D-02  0.8158538515D+00
 SP   1 1.00       0.000000000000
      0.4834560000D+00  0.1000000000D+01  0.1000000000D+01
 SP   1 1.00       0.000000000000
      0.1455850000D+00  0.1000000000D+01  0.1000000000D+01
 D   1 1.00       0.000000000000
      0.6260000000D+00  0.1000000000D+01
 ****
      6 0
 S   6 1.00       0.000000000000
      0.8588500000D+04  0.1895150083D-02
      0.1297230000D+04  0.1438590063D-01
      0.2992960000D+03  0.7073200310D-01
      0.8737710000D+02  0.2400010105D+00
      0.2567890000D+02  0.5947970261D+00
      0.3740040000D+01  0.2808020123D+00
 SP   3 1.00       0.000000000000
      0.4211750000D+02  0.1138890124D+00  0.3651139738D-01
      0.9628370000D+01  0.9208111006D+00  0.2371529830D+00
      0.2853320000D+01 -0.3274470358D-02  0.8197019412D+00
 SP   1 1.00       0.000000000000
      0.9056610000D+00  0.1000000000D+01  0.1000000000D+01
 SP   1 1.00       0.000000000000
      0.2556110000D+00  0.1000000000D+01  0.1000000000D+01
 D   1 1.00       0.000000000000
      0.1292000000D+01  0.1000000000D+01
 ****
      7 0
 S   3 1.00       0.000000000000
      0.3386500000D+02  0.2549381454D-01
      0.5094790000D+01  0.1903731086D+00
      0.1158790000D+01  0.8521614860D+00
 S   1 1.00       0.000000000000
      0.3258400000D+00  0.1000000000D+01
 S   1 1.00       0.000000000000
      0.1027410000D+00  0.1000000000D+01
 P   1 1.00       0.000000000000
      0.7500000000D+00  0.1000000000D+01
 ****
      8 0
 S   3 1.00       0.000000000000
      0.3386500000D+02  0.2549381454D-01
      0.5094790000D+01  0.1903731086D+00
      0.1158790000D+01  0.8521614860D+00
 S   1 1.00       0.000000000000
      0.3258400000D+00  0.1000000000D+01
 S   1 1.00       0.000000000000
      0.1027410000D+00  0.1000000000D+01
 P   1 1.00       0.000000000000
      0.7500000000D+00  0.1000000000D+01
 ****
      9 0
 S   3 1.00       0.000000000000
      0.3386500000D+02  0.2549381454D-01
      0.5094790000D+01  0.1903731086D+00
      0.1158790000D+01  0.8521614860D+00
 S   1 1.00       0.000000000000
      0.3258400000D+00  0.1000000000D+01
 S   1 1.00       0.000000000000
      0.1027410000D+00  0.1000000000D+01
 P   1 1.00       0.000000000000
      0.7500000000D+00  0.1000000000D+01
 ****
     10 0
 S   3 1.00       0.000000000000
      0.3386500000D+02  0.2549381454D-01
      0.5094790000D+01  0.1903731086D+00
      0.1158790000D+01  0.8521614860D+00
 S   1 1.00       0.000000000000
      0.3258400000D+00  0.1000000000D+01
 S   1 1.00       0.000000000000
      0.1027410000D+00  0.1000000000D+01
 P   1 1.00       0.000000000000
      0.7500000000D+00  0.1000000000D+01
 ****
     11 0
 S   3 1.00       0.000000000000
      0.3386500000D+02  0.2549381454D-01
      0.5094790000D+01  0.1903731086D+00
      0.1158790000D+01  0.8521614860D+00
 S   1 1.00       0.000000000000
      0.3258400000D+00  0.1000000000D+01
 S   1 1.00       0.000000000000
      0.1027410000D+00  0.1000000000D+01
 P   1 1.00       0.000000000000
      0.7500000000D+00  0.1000000000D+01
 ****
     12 0
 S   3 1.00       0.000000000000
      0.3386500000D+02  0.2549381454D-01
      0.5094790000D+01  0.1903731086D+00
      0.1158790000D+01  0.8521614860D+00
 S   1 1.00       0.000000000000
      0.3258400000D+00  0.1000000000D+01
 S   1 1.00       0.000000000000
      0.1027410000D+00  0.1000000000D+01
 P   1 1.00       0.000000000000
      0.7500000000D+00  0.1000000000D+01
 ****
     13 0
 S   3 1.00       0.000000000000
      0.3386500000D+02  0.2549381454D-01
      0.5094790000D+01  0.1903731086D+00
      0.1158790000D+01  0.8521614860D+00
 S   1 1.00       0.000000000000
      0.3258400000D+00  0.1000000000D+01
 S   1 1.00       0.000000000000
      0.1027410000D+00  0.1000000000D+01
 P   1 1.00       0.000000000000
      0.7500000000D+00  0.1000000000D+01
 ****
     14 0
 S   3 1.00       0.000000000000
      0.3386500000D+02  0.2549381454D-01
      0.5094790000D+01  0.1903731086D+00
      0.1158790000D+01  0.8521614860D+00
 S   1 1.00       0.000000000000
      0.3258400000D+00  0.1000000000D+01
 S   1 1.00       0.000000000000
      0.1027410000D+00  0.1000000000D+01
 P   1 1.00       0.000000000000
      0.7500000000D+00  0.1000000000D+01
 ****

 There are   162 symmetry adapted cartesian basis functions of A   symmetry.
 There are   156 symmetry adapted basis functions of A   symmetry.
   156 basis functions,   256 primitive gaussians,   162 cartesian basis functions
    24 alpha electrons       23 beta electrons
       nuclear repulsion energy       230.2985152071 Hartrees.
 NAtoms=   14 NActive=   14 NUniq=   14 SFac= 1.00D+00 NAtFMM=   60 NAOKFM=F Big=F
 Integral buffers will be    131072 words long.
 Raffenetti 2 integral format.
 Two-electron integral symmetry is turned on.
 One-electron integrals computed using PRISM.
 NBasis=   156 RedAO= T EigKep=  1.94D-03  NBF=   156
 NBsUse=   156 1.00D-06 EigRej= -1.00D+00 NBFU=   156
 ExpMin= 1.03D-01 ExpMax= 8.59D+03 ExpMxC= 1.30D+03 IAcc=1 IRadAn=         1 AccDes= 0.00D+00
 Harris functional with IExCor=  402 and IRadAn=       1 diagonalized for initial guess.
 HarFok:  IExCor=  402 AccDes= 0.00D+00 IRadAn=         1 IDoV= 1 UseB2=F ITyADJ=14
 ICtDFT=  3500011 ScaDFX=  1.000000  1.000000  1.000000  1.000000
 FoFCou: FMM=F IPFlag=           0 FMFlag=      100000 FMFlg1=           0
         NFxFlg=           0 DoJE=T BraDBF=F KetDBF=T FulRan=T
         wScrn=  0.000000 ICntrl=     500 IOpCl=  0 I1Cent=   200000004 NGrid=           0
         NMat0=    1 NMatS0=      1 NMatT0=    0 NMatD0=    1 NMtDS0=    0 NMtDT0=    0
 Petite list used in FoFCou.
 Initial guess <Sx>= 0.0000 <Sy>= 0.0000 <Sz>= 0.5000 <S**2>= 0.7500 S= 0.5000
 Requested convergence on RMS density matrix=1.00D-08 within 128 cycles.
 Requested convergence on MAX density matrix=1.00D-06.
 Requested convergence on             energy=1.00D-06.
 No special actions if energy rises.
 Integral accuracy reduced to 1.0D-05 until final iterations.
 Initial convergence to 1.0D-05 achieved.  Increase integral accuracy.
 SCF Done:  E(UB3LYP) =  -287.270099195     A.U. after   17 cycles
            NFock= 17  Conv=0.59D-08     -V/T= 2.0041
 <Sx>= 0.0000 <Sy>= 0.0000 <Sz>= 0.5000 <S**2>= 0.7553 S= 0.5026
 <L.S>= 0.000000000000E+00
 Annihilation of the first spin contaminant:
 S**2 before annihilation     0.7553,   after     0.7500

 **********************************************************************

            Population analysis using the SCF density.

 **********************************************************************

 Orbital symmetries:
 Alpha Orbitals:
       Occupied  (A) (A) (A) (A) (A) (A) (A) (A) (A) (A) (A) (A)
                 (A) (A) (A) (A) (A) (A) (A) (A) (A) (A) (A) (A)
       Virtual   (A) (A) (A) (A) (A) (A) (A) (A) (A) (A) (A) (A)
                 (A) (A) (A) (A) (A) (A) (A) (A) (A) (A) (A) (A)
                 (A) (A) (A) (A) (A) (A) (A) (A) (A) (A) (A) (A)
                 (A) (A) (A) (A) (A) (A) (A) (A) (A) (A) (A) (A)
                 (A) (A) (A) (A) (A) (A) (A) (A) (A) (A) (A) (A)
                 (A) (A) (A) (A) (A) (A) (A) (A) (A) (A) (A) (A)
                 (A) (A) (A) (A) (A) (A) (A) (A) (A) (A) (A) (A)
                 (A) (A) (A) (A) (A) (A) (A) (A) (A) (A) (A) (A)
                 (A) (A) (A) (A) (A) (A) (A) (A) (A) (A) (A) (A)
                 (A) (A) (A) (A) (A) (A) (A) (A) (A) (A) (A) (A)
                 (A) (A) (A) (A) (A) (A) (A) (A) (A) (A) (A) (A)
 Beta  Orbitals:
       Occupied  (A) (A) (A) (A) (A) (A) (A) (A) (A) (A) (A) (A)
                 (A) (A) (A) (A) (A) (A) (A) (A) (A) (A) (A)
       Virtual   (A) (A) (A) (A) (A) (A) (A) (A) (A) (A) (A) (A)
                 (A) (A) (A) (A) (A) (A) (A) (A) (A) (A) (A) (A)
                 (A) (A) (A) (A) (A) (A) (A) (A) (A) (A) (A) (A)
                 (A) (A) (A) (A) (A) (A) (A) (A) (A) (A) (A) (A)
                 (A) (A) (A) (A) (A) (A) (A) (A) (A) (A) (A) (A)
                 (A) (A) (A) (A) (A) (A) (A) (A) (A) (A) (A) (A)
                 (A) (A) (A) (A) (A) (A) (A) (A) (A) (A) (A) (A)
                 (A) (A) (A) (A) (A) (A) (A) (A) (A) (A) (A) (A)
                 (A) (A) (A) (A) (A) (A) (A) (A) (A) (A) (A) (A)
                 (A) (A) (A) (A) (A) (A) (A) (A) (A) (A) (A) (A)
                 (A) (A) (A) (A) (A) (A) (A) (A) (A) (A) (A) (A)
                 (A)
 The electronic state is 2-A.
 Alpha  occ. eigenvalues --  -19.08022 -14.35884 -10.27029 -10.20259 -10.18072
 Alpha  occ. eigenvalues --  -10.18031  -1.03687  -0.94116  -0.77547  -0.73344
 Alpha  occ. eigenvalues --   -0.63731  -0.59902  -0.49717  -0.48205  -0.45939
 Alpha  occ. eigenvalues --   -0.43133  -0.42354  -0.40818  -0.39801  -0.38554
 Alpha  occ. eigenvalues --   -0.38056  -0.31297  -0.25701  -0.16275
 Alpha virt. eigenvalues --    0.02307   0.02398   0.05278   0.07194   0.09448
 Alpha virt. eigenvalues --    0.10924   0.12272   0.12311   0.12860   0.18942
 Alpha virt. eigenvalues --    0.22459   0.25149   0.26582   0.29186   0.29853
 Alpha virt. eigenvalues --    0.31213   0.31805   0.35347   0.38755   0.39932
 Alpha virt. eigenvalues --    0.40799   0.42145   0.45882   0.51061   0.51746
 Alpha virt. eigenvalues --    0.54023   0.55183   0.56025   0.56944   0.57545
 Alpha virt. eigenvalues --    0.59740   0.62407   0.63265   0.65891   0.67125
 Alpha virt. eigenvalues --    0.69275   0.71960   0.74044   0.80499   0.85580
 Alpha virt. eigenvalues --    0.90098   0.94667   0.96897   1.01001   1.02404
 Alpha virt. eigenvalues --    1.03423   1.11309   1.13292   1.20792   1.25952
 Alpha virt. eigenvalues --    1.27140   1.36831   1.39868   1.42996   1.43707
 Alpha virt. eigenvalues --    1.44579   1.47529   1.48147   1.49114   1.50357
 Alpha virt. eigenvalues --    1.50995   1.54787   1.55263   1.61020   1.62503
 Alpha virt. eigenvalues --    1.66815   1.70813   1.74531   1.76232   1.77901
 Alpha virt. eigenvalues --    1.80226   1.82693   1.89305   1.89543   1.90819
 Alpha virt. eigenvalues --    1.96542   2.02444   2.08431   2.14090   2.17480
 Alpha virt. eigenvalues --    2.21364   2.26912   2.32316   2.32994   2.34527
 Alpha virt. eigenvalues --    2.35275   2.40247   2.41474   2.43077   2.44580
 Alpha virt. eigenvalues --    2.44923   2.46973   2.48213   2.48430   2.53705
 Alpha virt. eigenvalues --    2.54994   2.62974   2.64479   2.69400   2.76065
 Alpha virt. eigenvalues --    2.81398   2.83758   2.84474   2.88839   2.92545
 Alpha virt. eigenvalues --    3.00461   3.07914   3.16029   3.22586   3.33949
 Alpha virt. eigenvalues --    3.37842   3.55581   3.59726   3.74483   3.74966
 Alpha virt. eigenvalues --    3.76872   3.78821   3.79266   3.79656   4.10298
 Alpha virt. eigenvalues --    4.11328   4.82585   4.91151   4.96243   5.07029
 Alpha virt. eigenvalues --    5.65442  23.77998  23.80125  23.90093  23.90717
 Alpha virt. eigenvalues --   35.55252  49.99275
  Beta  occ. eigenvalues --  -19.07783 -14.35792 -10.26925 -10.19020 -10.18152
  Beta  occ. eigenvalues --  -10.18045  -1.03235  -0.93432  -0.76584  -0.73108
  Beta  occ. eigenvalues --   -0.62663  -0.59441  -0.48970  -0.47869  -0.45003
  Beta  occ. eigenvalues --   -0.42197  -0.41929  -0.40501  -0.39549  -0.38122
  Beta  occ. eigenvalues --   -0.37219  -0.29307  -0.25467
  Beta virt. eigenvalues --   -0.04754   0.02431   0.04398   0.05385   0.07271
  Beta virt. eigenvalues --    0.09690   0.11279   0.12390   0.12487   0.13260
  Beta virt. eigenvalues --    0.19366   0.23279   0.25491   0.27014   0.29395
  Beta virt. eigenvalues --    0.30091   0.31466   0.32554   0.35608   0.39446
  Beta virt. eigenvalues --    0.41985   0.42205   0.42613   0.46277   0.52012
  Beta virt. eigenvalues --    0.53331   0.54388   0.55420   0.56110   0.57022
  Beta virt. eigenvalues --    0.57690   0.60288   0.62743   0.63528   0.66185
  Beta virt. eigenvalues --    0.67909   0.69813   0.72445   0.74458   0.80877
  Beta virt. eigenvalues --    0.86116   0.90742   0.94863   0.97507   1.01634
  Beta virt. eigenvalues --    1.02781   1.03655   1.11907   1.15109   1.21065
  Beta virt. eigenvalues --    1.26431   1.27244   1.38364   1.40261   1.43433
  Beta virt. eigenvalues --    1.43767   1.45004   1.47947   1.48432   1.49499
  Beta virt. eigenvalues --    1.50541   1.51401   1.55086   1.55550   1.62735
  Beta virt. eigenvalues --    1.63653   1.67094   1.71295   1.75249   1.76804
  Beta virt. eigenvalues --    1.79203   1.80405   1.83664   1.89552   1.90673
  Beta virt. eigenvalues --    1.91747   1.96795   2.02865   2.08593   2.14449
  Beta virt. eigenvalues --    2.17792   2.22308   2.27350   2.33017   2.33285
  Beta virt. eigenvalues --    2.34840   2.35389   2.40458   2.41831   2.43425
  Beta virt. eigenvalues --    2.44850   2.45515   2.47342   2.48326   2.48653
  Beta virt. eigenvalues --    2.54064   2.55648   2.63470   2.64980   2.71813
  Beta virt. eigenvalues --    2.76730   2.81590   2.84284   2.87239   2.89505
  Beta virt. eigenvalues --    2.93450   3.00763   3.08106   3.16327   3.23129
  Beta virt. eigenvalues --    3.34633   3.38120   3.56057   3.60302   3.74878
  Beta virt. eigenvalues --    3.75243   3.77099   3.79030   3.79562   3.79866
  Beta virt. eigenvalues --    4.10836   4.12073   4.82930   4.92186   4.96866
  Beta virt. eigenvalues --    5.07281   5.65707  23.78342  23.81262  23.90066
  Beta virt. eigenvalues --   23.90679  35.55350  49.99515
     Alpha Molecular Orbital Coefficients:
                           1         2         3         4         5
                           O         O         O         O         O
     Eigenvalues --   -19.08022 -14.35884 -10.27029 -10.20259 -10.18072
   1 1   C  1S          0.00000  -0.00001   0.00071   0.00002  -0.00079
   2        2S          0.00001   0.00004   0.00059   0.00001  -0.00064
   3        2PX        -0.00002   0.00007   0.00048  -0.00002   0.00000
   4        2PY         0.00011   0.00003   0.00038  -0.00002  -0.00001
   5        2PZ         0.00000   0.00000   0.00000   0.00000   0.00000
   6        3S         -0.00019  -0.00027   0.00005  -0.00002  -0.00012
   7        3PX        -0.00004  -0.00041  -0.00147   0.00014  -0.00001
   8        3PY        -0.00053  -0.00022  -0.00111   0.00008   0.00003
   9        3PZ         0.00001   0.00001  -0.00001   0.00000   0.00000
  10        4S          0.00505   0.00227   0.00688   0.00230   0.00116
  11        4PX         0.00196  -0.00014   0.00252   0.00012   0.00021
  12        4PY        -0.00037   0.00151   0.00143   0.00091   0.00040
  13        4PZ        -0.00001  -0.00005  -0.00003  -0.00004   0.00005
  14        5D 0        0.00007   0.00004   0.00066   0.00005   0.00000
  15        5D+1       -0.00001   0.00000   0.00002   0.00000   0.00000
  16        5D-1        0.00000   0.00001   0.00000   0.00000   0.00000
  17        5D+2        0.00021  -0.00012  -0.00010  -0.00001   0.00000
  18        5D-2       -0.00034  -0.00021  -0.00090   0.00001   0.00000
  19 2   C  1S         -0.00002   0.00000   0.56298   0.00001  -0.00001
  20        2S          0.00006   0.00005   0.46347  -0.00002  -0.00001
  21        2PX        -0.00003   0.00041   0.00048  -0.00001  -0.00001
  22        2PY         0.00040  -0.00025  -0.00014  -0.00005   0.00002
  23        2PZ         0.00001  -0.00001  -0.00001   0.00001  -0.00001
  24        3S          0.00070   0.00029   0.01712   0.00031   0.00007
  25        3PX        -0.00006  -0.00103  -0.00010   0.00001   0.00005
  26        3PY        -0.00110   0.00076   0.00147   0.00013  -0.00010
  27        3PZ        -0.00001   0.00003   0.00001  -0.00003   0.00002
  28        4S         -0.00031   0.00271  -0.00401   0.00019   0.00043
  29        4PX        -0.00039   0.00483   0.00394   0.00278   0.00128
  30        4PY         0.00826  -0.00029   0.00620   0.00174   0.00051
  31        4PZ         0.00013  -0.00010   0.00005   0.00003  -0.00009
  32        5D 0        0.00028   0.00020  -0.00163  -0.00003  -0.00002
  33        5D+1       -0.00001   0.00004  -0.00005   0.00000   0.00000
  34        5D-1       -0.00004  -0.00002   0.00008   0.00000   0.00000
  35        5D+2        0.00098  -0.00063  -0.00090   0.00006   0.00000
  36        5D-2        0.00037   0.00080  -0.00043   0.00018   0.00000
  37 3   N  1S          0.00000   0.55733  -0.00005  -0.00004   0.00000
  38        2S          0.00004   0.46569  -0.00005  -0.00006   0.00003
  39        2PX        -0.00012   0.00007  -0.00042   0.00041   0.00010
  40        2PY         0.00006  -0.00013   0.00011   0.00024   0.00001
  41        2PZ         0.00001  -0.00006   0.00002  -0.00003   0.00000
  42        3S         -0.00031   0.01604   0.00066   0.00075  -0.00009
  43        3PX         0.00062  -0.00013   0.00105  -0.00096  -0.00047
  44        3PY        -0.00024  -0.00013  -0.00020  -0.00051  -0.00009
  45        3PZ        -0.00003  -0.00003  -0.00004   0.00007   0.00002
  46        4S          0.00215  -0.01090  -0.00180  -0.00206  -0.00027
  47        4PX        -0.00279   0.00117   0.00142   0.00003   0.00098
  48        4PY        -0.00203  -0.00400  -0.00466  -0.00394  -0.00070
  49        4PZ         0.00005  -0.00009  -0.00015  -0.00005  -0.00008
  50        5D 0       -0.00005  -0.00078   0.00047   0.00047   0.00002
  51        5D+1        0.00000  -0.00006   0.00005   0.00007   0.00002
  52        5D-1        0.00000   0.00004  -0.00001   0.00007  -0.00001
  53        5D+2       -0.00007  -0.00022  -0.00073  -0.00038  -0.00015
  54        5D-2        0.00018  -0.00006   0.00043  -0.00071  -0.00012
  55 4   C  1S          0.00000   0.00000   0.00000   0.56267  -0.00359
  56        2S         -0.00001   0.00003  -0.00004   0.46344  -0.00293
  57        2PX         0.00004  -0.00034   0.00003  -0.00047   0.00057
  58        2PY         0.00005  -0.00031  -0.00001  -0.00068  -0.00028
  59        2PZ         0.00000   0.00001   0.00000   0.00008   0.00004
  60        3S          0.00027   0.00037   0.00036   0.01838   0.00009
  61        3PX        -0.00025   0.00077  -0.00015  -0.00019  -0.00157
  62        3PY        -0.00025   0.00102   0.00005   0.00182   0.00097
  63        3PZ         0.00000   0.00003   0.00002   0.00045  -0.00007
  64        4S          0.00146   0.00245   0.00044  -0.00699   0.00157
  65        4PX         0.00018  -0.00235  -0.00203  -0.00293   0.00164
  66        4PY        -0.00061  -0.00034   0.00205   0.00230  -0.00010
  67        4PZ         0.00007   0.00019   0.00017  -0.00018   0.00019
  68        5D 0        0.00006   0.00016  -0.00001  -0.00140   0.00022
  69        5D+1        0.00000   0.00006  -0.00004   0.00001  -0.00015
  70        5D-1       -0.00001   0.00006   0.00003   0.00015   0.00010
  71        5D+2        0.00003  -0.00025   0.00008  -0.00062  -0.00064
  72        5D-2       -0.00002  -0.00100  -0.00015  -0.00049   0.00070
  73 5   C  1S          0.00000   0.00000   0.00001   0.00356   0.56297
  74        2S          0.00000   0.00003   0.00000   0.00297   0.46324
  75        2PX         0.00000  -0.00010   0.00003  -0.00066  -0.00021
  76        2PY         0.00000   0.00001  -0.00001   0.00035   0.00005
  77        2PZ         0.00000   0.00000   0.00000  -0.00011  -0.00003
  78        3S         -0.00004  -0.00012   0.00004   0.00025   0.01842
  79        3PX         0.00005   0.00055  -0.00014   0.00217   0.00123
  80        3PY         0.00000  -0.00010   0.00007  -0.00115  -0.00044
  81        3PZ         0.00000   0.00000  -0.00005   0.00040   0.00001
  82        4S         -0.00046   0.00096   0.00173   0.00444  -0.00725
  83        4PX         0.00016  -0.00010  -0.00026  -0.00195   0.00102
  84        4PY        -0.00011   0.00042   0.00060   0.00064  -0.00059
  85        4PZ         0.00010  -0.00011  -0.00051  -0.00052   0.00006
  86        5D 0       -0.00002   0.00005  -0.00003   0.00081   0.00013
  87        5D+1        0.00000  -0.00005  -0.00003  -0.00025  -0.00005
  88        5D-1       -0.00001  -0.00002  -0.00002   0.00011   0.00000
  89        5D+2       -0.00001  -0.00023   0.00003  -0.00069  -0.00019
  90        5D-2        0.00001   0.00016   0.00004   0.00090   0.00026
  91 6   O  1S          0.55126   0.00000  -0.00009   0.00000   0.00000
  92        2S          0.46975   0.00004  -0.00008  -0.00001   0.00000
  93        2PX         0.00025   0.00001   0.00005   0.00001   0.00001
  94        2PY        -0.00115  -0.00007  -0.00055  -0.00004   0.00000
  95        2PZ        -0.00003   0.00000  -0.00001   0.00000   0.00000
  96        3S          0.01388  -0.00023   0.00075   0.00015  -0.00002
  97        3PX         0.00008  -0.00005  -0.00011  -0.00001  -0.00003
  98        3PY        -0.00084   0.00038   0.00173   0.00015   0.00001
  99        3PZ        -0.00002   0.00001   0.00003   0.00000   0.00000
 100        4S         -0.01094  -0.00030  -0.00692  -0.00112  -0.00018
 101        4PX        -0.00039  -0.00093  -0.00134  -0.00061  -0.00009
 102        4PY         0.00226  -0.00008   0.00264  -0.00021  -0.00005
 103        4PZ         0.00005   0.00002   0.00008   0.00002   0.00001
 104        5D 0       -0.00012   0.00001   0.00058  -0.00002  -0.00002
 105        5D+1        0.00000   0.00000   0.00001   0.00000   0.00000
 106        5D-1        0.00001  -0.00001  -0.00004   0.00000   0.00000
 107        5D+2       -0.00026   0.00007   0.00083  -0.00003   0.00000
 108        5D-2       -0.00009   0.00018   0.00030   0.00004   0.00001
 109 7   H  1S          0.00007  -0.00009  -0.00002   0.00001  -0.00001
 110        2S         -0.00116   0.00010  -0.00113   0.00006  -0.00002
 111        3S         -0.00036   0.00024   0.00004   0.00005   0.00003
 112        4PX         0.00010  -0.00002   0.00019  -0.00004   0.00000
 113        4PY        -0.00022  -0.00009  -0.00029  -0.00002   0.00000
 114        4PZ         0.00002   0.00000   0.00001   0.00000  -0.00001
 115 8   H  1S          0.00005   0.00002  -0.00007   0.00000   0.00001
 116        2S         -0.00052  -0.00043  -0.00106  -0.00016  -0.00016
 117        3S         -0.00002  -0.00007   0.00045  -0.00012  -0.00002
 118        4PX        -0.00017   0.00003  -0.00021   0.00004  -0.00001
 119        4PY         0.00003  -0.00001   0.00017  -0.00001   0.00000
 120        4PZ         0.00009   0.00014   0.00032   0.00004   0.00002
 121 9   H  1S          0.00005   0.00004  -0.00008   0.00000   0.00001
 122        2S         -0.00049  -0.00046  -0.00110  -0.00017  -0.00012
 123        3S         -0.00004  -0.00011   0.00047  -0.00011  -0.00002
 124        4PX        -0.00014   0.00002  -0.00021   0.00005   0.00000
 125        4PY         0.00003  -0.00002   0.00016   0.00000  -0.00001
 126        4PZ        -0.00009  -0.00014  -0.00035  -0.00004  -0.00002
 127 10  H  1S         -0.00003   0.00004   0.00006   0.00005  -0.00003
 128        2S         -0.00112  -0.00283  -0.00237  -0.00199  -0.00041
 129        3S          0.00025   0.00039   0.00014  -0.00001  -0.00008
 130        4PX         0.00011   0.00012  -0.00028   0.00025  -0.00004
 131        4PY        -0.00021  -0.00183  -0.00041  -0.00034  -0.00008
 132        4PZ        -0.00001  -0.00007  -0.00001  -0.00004   0.00000
 133 11  H  1S         -0.00003  -0.00017   0.00006   0.00004  -0.00011
 134        2S          0.00023  -0.00087  -0.00100  -0.00500  -0.00073
 135        3S         -0.00023  -0.00019  -0.00110   0.00165   0.00007
 136        4PX         0.00008   0.00016   0.00015  -0.00019  -0.00021
 137        4PY        -0.00009   0.00042   0.00012   0.00290   0.00040
 138        4PZ        -0.00002   0.00002   0.00001   0.00026   0.00001
 139 12  H  1S          0.00000  -0.00002   0.00005  -0.00007   0.00010
 140        2S          0.00000  -0.00036  -0.00044  -0.00089  -0.00268
 141        3S          0.00010   0.00018  -0.00005   0.00028   0.00141
 142        4PX         0.00000   0.00005   0.00005   0.00022   0.00145
 143        4PY         0.00001   0.00010   0.00004   0.00033   0.00137
 144        4PZ        -0.00001  -0.00005   0.00001  -0.00009  -0.00066
 145 13  H  1S          0.00002   0.00003  -0.00005  -0.00016   0.00011
 146        2S         -0.00004  -0.00015   0.00029  -0.00092  -0.00239
 147        3S         -0.00007  -0.00009   0.00007   0.00050   0.00139
 148        4PX         0.00002   0.00003  -0.00006   0.00003   0.00024
 149        4PY         0.00000  -0.00004  -0.00003  -0.00007  -0.00042
 150        4PZ         0.00001   0.00007  -0.00006   0.00050   0.00191
 151 14  H  1S          0.00000   0.00000  -0.00001  -0.00008   0.00012
 152        2S          0.00002  -0.00017   0.00011  -0.00108  -0.00254
 153        3S         -0.00009  -0.00005  -0.00010   0.00035   0.00141
 154        4PX         0.00002   0.00003  -0.00004  -0.00011  -0.00002
 155        4PY         0.00000  -0.00008  -0.00001  -0.00035  -0.00167
 156        4PZ        -0.00001  -0.00005   0.00005  -0.00026  -0.00112
                           6         7         8         9        10
                           O         O         O         O         O
     Eigenvalues --   -10.18031  -1.03687  -0.94116  -0.77547  -0.73344
   1 1   C  1S          0.56294  -0.01164  -0.00387   0.05238  -0.08335
   2        2S          0.46325  -0.01788  -0.00594   0.08104  -0.12919
   3        2PX         0.00021   0.00786   0.00588  -0.01547   0.00304
   4        2PY         0.00007   0.00860  -0.00272  -0.00578   0.00551
   5        2PZ        -0.00001  -0.00003  -0.00022   0.00037  -0.00011
   6        3S          0.01867   0.04714   0.01490  -0.21370   0.34166
   7        3PX        -0.00127   0.01339   0.01115  -0.02922   0.01118
   8        3PY        -0.00083   0.01681  -0.00426  -0.01305   0.01257
   9        3PZ         0.00002  -0.00013  -0.00037   0.00058  -0.00023
  10        4S         -0.00751  -0.01146   0.00482  -0.09882   0.18284
  11        4PX        -0.00066  -0.00794   0.00657  -0.00254  -0.00308
  12        4PY        -0.00124   0.00040  -0.00751   0.00617  -0.00556
  13        4PZ         0.00000  -0.00008  -0.00024   0.00050  -0.00014
  14        5D 0        0.00033  -0.00193  -0.00137   0.00328  -0.00159
  15        5D+1        0.00000   0.00003  -0.00012   0.00010  -0.00001
  16        5D-1        0.00001  -0.00001  -0.00012   0.00012  -0.00001
  17        5D+2       -0.00013  -0.00134   0.00389  -0.00274   0.00006
  18        5D-2       -0.00053   0.00477   0.00032  -0.00428   0.00251
  19 2   C  1S         -0.00073  -0.07185  -0.00387   0.03663  -0.01832
  20        2S         -0.00060  -0.10958  -0.00646   0.05732  -0.02881
  21        2PX        -0.00041   0.00565   0.05195  -0.00587  -0.05686
  22        2PY        -0.00039   0.06695  -0.07035   0.06412  -0.04004
  23        2PZ         0.00000   0.00093  -0.00284   0.00139   0.00092
  24        3S          0.00016   0.29116   0.01710  -0.16013   0.08004
  25        3PX         0.00096   0.01296   0.07477  -0.00510  -0.08664
  26        3PY         0.00108   0.08191  -0.09511   0.09066  -0.05999
  27        3PZ        -0.00001   0.00089  -0.00400   0.00195   0.00153
  28        4S          0.00129   0.07550  -0.00517  -0.07364   0.05931
  29        4PX        -0.00242  -0.01030  -0.00972   0.01402  -0.02592
  30        4PY         0.00001  -0.03068  -0.00331   0.03330  -0.03194
  31        4PZ         0.00007  -0.00019   0.00001   0.00007  -0.00007
  32        5D 0        0.00021  -0.01678  -0.00079   0.00486  -0.00163
  33        5D+1        0.00000  -0.00057  -0.00087   0.00036   0.00032
  34        5D-1        0.00002   0.00102  -0.00017  -0.00012  -0.00023
  35        5D+2       -0.00020  -0.01555   0.02093  -0.00564  -0.00066
  36        5D-2       -0.00078  -0.00942  -0.00506   0.00094   0.01080
  37 3   N  1S          0.00000  -0.04365  -0.09694   0.01303   0.02800
  38        2S          0.00004  -0.06848  -0.15252   0.02061   0.04446
  39        2PX        -0.00009  -0.01309   0.00771   0.07504  -0.00264
  40        2PY        -0.00002   0.01258   0.00040   0.02182  -0.00542
  41        2PZ         0.00000   0.00002  -0.00191  -0.00173   0.00142
  42        3S         -0.00023   0.18815   0.42070  -0.05737  -0.12688
  43        3PX         0.00047  -0.02212   0.01257   0.11115  -0.00288
  44        3PY         0.00007   0.02023   0.00134   0.03278  -0.00707
  45        3PZ        -0.00001   0.00015  -0.00283  -0.00244   0.00216
  46        4S          0.00054   0.11177   0.29300  -0.04801  -0.10984
  47        4PX        -0.00143   0.00076  -0.00996   0.06201  -0.00217
  48        4PY        -0.00079   0.02560   0.00869   0.01627  -0.00325
  49        4PZ         0.00004   0.00027  -0.00013  -0.00164   0.00095
  50        5D 0        0.00000  -0.00503  -0.01036   0.00056   0.00109
  51        5D+1        0.00001  -0.00044  -0.00086   0.00005   0.00022
  52        5D-1        0.00001   0.00010   0.00004  -0.00021  -0.00003
  53        5D+2       -0.00013   0.00166   0.00376  -0.00096   0.00467
  54        5D-2        0.00003  -0.00338   0.00275   0.00515   0.00199
  55 4   C  1S         -0.00002  -0.01515  -0.04521  -0.06188  -0.02004
  56        2S         -0.00002  -0.02328  -0.06987  -0.09646  -0.03136
  57        2PX         0.00001  -0.01503  -0.03385   0.02008   0.04990
  58        2PY         0.00002  -0.00732  -0.02706  -0.01780  -0.00134
  59        2PZ         0.00000   0.00115   0.00331   0.00592   0.00316
  60        3S          0.00003   0.05920   0.18510   0.26127   0.08490
  61        3PX        -0.00004  -0.02154  -0.05132   0.03291   0.07615
  62        3PY        -0.00010  -0.01188  -0.04488  -0.02976  -0.00452
  63        3PZ        -0.00001   0.00152   0.00447   0.00851   0.00476
  64        4S          0.00095   0.00590   0.06927   0.13750   0.06487
  65        4PX        -0.00127   0.00310   0.00889   0.02194   0.02143
  66        4PY         0.00018   0.00007  -0.01043  -0.00703  -0.00658
  67        4PZ         0.00006  -0.00081   0.00020   0.00242   0.00201
  68        5D 0       -0.00004  -0.00322  -0.00684  -0.00420  -0.00014
  69        5D+1       -0.00001  -0.00062  -0.00109   0.00103   0.00192
  70        5D-1        0.00001  -0.00028  -0.00102  -0.00091  -0.00045
  71        5D+2       -0.00002   0.00318   0.00529   0.00210   0.00082
  72        5D-2       -0.00001   0.00443   0.01218  -0.00382  -0.01072
  73 5   C  1S          0.00079  -0.00264  -0.01321  -0.06594  -0.06261
  74        2S          0.00065  -0.00403  -0.02028  -0.10191  -0.09693
  75        2PX         0.00000  -0.00264  -0.01121  -0.01974  -0.00406
  76        2PY         0.00000   0.00045   0.00186   0.00871   0.00498
  77        2PZ         0.00000  -0.00021  -0.00095  -0.00269  -0.00145
  78        3S         -0.00006   0.01002   0.05215   0.26837   0.25595
  79        3PX         0.00003  -0.00505  -0.01986  -0.03492  -0.00921
  80        3PY         0.00001   0.00065   0.00360   0.01557   0.00902
  81        3PZ         0.00001  -0.00015  -0.00140  -0.00408  -0.00228
  82        4S          0.00093   0.00499   0.01017   0.12749   0.13694
  83        4PX        -0.00030  -0.00251  -0.00214  -0.00146   0.00235
  84        4PY         0.00012  -0.00154  -0.00498  -0.00181  -0.00156
  85        4PZ        -0.00008   0.00062   0.00268   0.00126   0.00159
  86        5D 0       -0.00001  -0.00041  -0.00208  -0.00363  -0.00145
  87        5D+1        0.00000   0.00016   0.00071   0.00093   0.00033
  88        5D-1        0.00000   0.00022   0.00024  -0.00040  -0.00040
  89        5D+2       -0.00001   0.00115   0.00376   0.00352   0.00000
  90        5D-2        0.00000  -0.00047  -0.00185  -0.00434  -0.00199
  91 6   O  1S          0.00000  -0.09251   0.05359  -0.02293   0.01247
  92        2S          0.00002  -0.14775   0.08587  -0.03701   0.02019
  93        2PX         0.00000   0.01360   0.00091   0.00410  -0.01501
  94        2PY        -0.00007  -0.06699   0.03145  -0.00084  -0.00291
  95        2PZ         0.00000  -0.00156   0.00049  -0.00010   0.00040
  96        3S         -0.00006   0.42267  -0.24826   0.10941  -0.06076
  97        3PX        -0.00002   0.01977   0.00142   0.00606  -0.02287
  98        3PY         0.00037  -0.09789   0.04455  -0.00206  -0.00409
  99        3PZ         0.00000  -0.00228   0.00071  -0.00016   0.00062
 100        4S         -0.00095   0.29761  -0.17715   0.08490  -0.04427
 101        4PX         0.00029   0.01166   0.00444   0.00097  -0.00944
 102        4PY         0.00027  -0.03922   0.01735   0.00287  -0.00475
 103        4PZ         0.00000  -0.00100   0.00016   0.00007   0.00025
 104        5D 0        0.00003  -0.00587   0.00234  -0.00033  -0.00008
 105        5D+1        0.00000  -0.00003  -0.00007   0.00000   0.00009
 106        5D-1        0.00000   0.00054  -0.00017   0.00004  -0.00010
 107        5D+2        0.00015  -0.01225   0.00643  -0.00094  -0.00078
 108        5D-2       -0.00002  -0.00519  -0.00018  -0.00074   0.00386
 109 7   H  1S          0.00014   0.00411   0.00540  -0.03870   0.06196
 110        2S         -0.00279   0.00938   0.00326  -0.04650   0.07359
 111        3S          0.00134   0.00099   0.00026  -0.00077   0.00518
 112        4PX         0.00080   0.00002   0.00044   0.00125  -0.00345
 113        4PY        -0.00193   0.00230   0.00098  -0.00852   0.01228
 114        4PZ         0.00007  -0.00010  -0.00005   0.00030  -0.00042
 115 8   H  1S          0.00007   0.00504   0.00032  -0.03329   0.06292
 116        2S         -0.00261   0.00773   0.00187  -0.04131   0.07549
 117        3S          0.00150  -0.00078  -0.00039   0.00009   0.00366
 118        4PX        -0.00119   0.00142   0.00013  -0.00520   0.00797
 119        4PY         0.00046   0.00013  -0.00024   0.00112  -0.00198
 120        4PZ         0.00170  -0.00154  -0.00044   0.00607  -0.01035
 121 9   H  1S          0.00007   0.00492   0.00064  -0.03371   0.06299
 122        2S         -0.00259   0.00741   0.00205  -0.04161   0.07564
 123        3S          0.00149  -0.00081  -0.00039   0.00021   0.00348
 124        4PX        -0.00112   0.00127   0.00019  -0.00506   0.00761
 125        4PY         0.00037   0.00017  -0.00019   0.00071  -0.00133
 126        4PZ        -0.00175   0.00151   0.00049  -0.00632   0.01069
 127 10  H  1S         -0.00007   0.02309   0.07198  -0.02043  -0.02083
 128        2S         -0.00032   0.03099   0.07177  -0.02018  -0.01922
 129        3S         -0.00008  -0.00337  -0.00219  -0.00220  -0.00348
 130        4PX         0.00004  -0.00147  -0.00062   0.00487  -0.00028
 131        4PY        -0.00003   0.00754   0.01766  -0.00308  -0.00414
 132        4PZ        -0.00001   0.00024   0.00042  -0.00022   0.00002
 133 11  H  1S         -0.00001   0.00702   0.01715   0.03532   0.01088
 134        2S         -0.00021   0.00976   0.02253   0.03940   0.01241
 135        3S         -0.00014   0.00206  -0.00298  -0.00077   0.00029
 136        4PX         0.00003  -0.00108  -0.00042   0.00146   0.00253
 137        4PY         0.00001  -0.00221  -0.00607  -0.00732  -0.00214
 138        4PZ         0.00000   0.00000  -0.00018  -0.00004   0.00000
 139 12  H  1S          0.00000   0.00073   0.00485   0.04340   0.04788
 140        2S         -0.00009   0.00193   0.00851   0.05152   0.05695
 141        3S          0.00008  -0.00055   0.00014   0.00161   0.00467
 142        4PX         0.00000  -0.00039  -0.00175  -0.00779  -0.00738
 143        4PY         0.00002  -0.00022  -0.00096  -0.00528  -0.00565
 144        4PZ         0.00000   0.00015   0.00049   0.00275   0.00288
 145 13  H  1S          0.00001   0.00115   0.00643   0.04305   0.04587
 146        2S         -0.00009   0.00034   0.00627   0.05032   0.05340
 147        3S         -0.00002  -0.00002  -0.00134   0.00032   0.00258
 148        4PX         0.00002  -0.00003  -0.00057  -0.00261  -0.00177
 149        4PY        -0.00001   0.00011   0.00049   0.00250   0.00238
 150        4PZ         0.00002  -0.00021  -0.00161  -0.00883  -0.00868
 151 14  H  1S          0.00000   0.00143   0.00751   0.04393   0.04566
 152        2S         -0.00011   0.00048   0.00836   0.05252   0.05397
 153        3S         -0.00003   0.00077   0.00023   0.00102   0.00397
 154        4PX         0.00000  -0.00018  -0.00080  -0.00184  -0.00089
 155        4PY        -0.00002   0.00026   0.00172   0.00834   0.00789
 156        4PZ        -0.00001   0.00014   0.00099   0.00491   0.00471
                          11        12        13        14        15
                           O         O         O         O         O
     Eigenvalues --    -0.63731  -0.59902  -0.49717  -0.48205  -0.45939
   1 1   C  1S         -0.03771   0.01121   0.01515   0.00796  -0.00006
   2        2S         -0.05872   0.01747   0.02371   0.01232  -0.00011
   3        2PX        -0.03227   0.02216   0.07232   0.02505   0.00198
   4        2PY        -0.00943   0.01245   0.05759   0.11643   0.00106
   5        2PZ         0.00033  -0.00035   0.00071  -0.00129   0.12090
   6        3S          0.15669  -0.04470  -0.06219  -0.02662   0.00066
   7        3PX        -0.04679   0.03242   0.10791   0.04052   0.00313
   8        3PY        -0.01449   0.01728   0.08594   0.17010   0.00159
   9        3PZ         0.00036  -0.00060   0.00112  -0.00206   0.17772
  10        4S          0.10662  -0.05228  -0.07023  -0.09581  -0.00285
  11        4PX        -0.01887   0.00534   0.05592  -0.01524   0.00001
  12        4PY        -0.00835  -0.00155   0.04543   0.08615   0.00169
  13        4PZ         0.00003   0.00088   0.00044  -0.00027   0.12211
  14        5D 0        0.00419  -0.00146  -0.00808  -0.00117  -0.00119
  15        5D+1        0.00009  -0.00003  -0.00019  -0.00041  -0.00540
  16        5D-1        0.00008  -0.00015   0.00002   0.00017   0.01005
  17        5D+2       -0.00276   0.00350   0.00136   0.00167  -0.00006
  18        5D-2       -0.00487   0.00379   0.01244   0.01584  -0.00029
  19 2   C  1S          0.02809  -0.04556  -0.02359  -0.04169  -0.00067
  20        2S          0.04410  -0.07168  -0.03736  -0.06618  -0.00107
  21        2PX        -0.04901   0.07582  -0.07707  -0.09938   0.00003
  22        2PY         0.03028  -0.03034  -0.04542   0.01580  -0.00054
  23        2PZ         0.00105  -0.00230   0.00297  -0.00078   0.12038
  24        3S         -0.12852   0.20906   0.10819   0.19941   0.00332
  25        3PX        -0.07238   0.10930  -0.11292  -0.14057   0.00037
  26        3PY         0.04074  -0.04009  -0.06433   0.02393  -0.00090
  27        3PZ         0.00130  -0.00313   0.00475  -0.00173   0.18802
  28        4S         -0.06372   0.10557   0.07722   0.18315   0.00270
  29        4PX        -0.02330   0.01417  -0.05348  -0.07190   0.00047
  30        4PY         0.01317  -0.03496  -0.04001  -0.07821  -0.00390
  31        4PZ         0.00064  -0.00125   0.00215  -0.00250   0.10896
  32        5D 0        0.00299  -0.00407  -0.00026  -0.00026  -0.00023
  33        5D+1        0.00009  -0.00039   0.00047  -0.00047   0.00336
  34        5D-1       -0.00050  -0.00039   0.00041  -0.00005   0.00120
  35        5D+2        0.00277   0.01530  -0.01141   0.00729   0.00048
  36        5D-2        0.01526   0.00521  -0.00863   0.00191  -0.00004
  37 3   N  1S          0.00755   0.01712   0.01802   0.00201  -0.00092
  38        2S          0.01201   0.02721   0.02907   0.00325  -0.00148
  39        2PX         0.11757  -0.10088  -0.03486   0.07637   0.00793
  40        2PY         0.06200   0.15592  -0.11183   0.04364  -0.00072
  41        2PZ        -0.00554   0.00761   0.00213  -0.00728   0.11308
  42        3S         -0.03343  -0.07680  -0.08848  -0.00791   0.00418
  43        3PX         0.17336  -0.14750  -0.04754   0.10840   0.01215
  44        3PY         0.09102   0.22705  -0.16308   0.06151  -0.00127
  45        3PZ        -0.00812   0.01117   0.00337  -0.01078   0.17143
  46        4S         -0.03258  -0.06551  -0.08609  -0.01786   0.00629
  47        4PX         0.09447  -0.09067  -0.04697   0.11711   0.00908
  48        4PY         0.05733   0.15070  -0.10866   0.06142  -0.00195
  49        4PZ        -0.00459   0.00661   0.00195  -0.00930   0.14002
  50        5D 0        0.00010   0.00106  -0.00055   0.00079  -0.00007
  51        5D+1       -0.00036   0.00002   0.00039  -0.00044  -0.00536
  52        5D-1       -0.00085  -0.00076   0.00074  -0.00078   0.00463
  53        5D+2       -0.00074   0.01199  -0.00304   0.00749  -0.00003
  54        5D-2        0.01149  -0.00210   0.00099   0.00408   0.00056
  55 4   C  1S         -0.06171  -0.02384  -0.03562   0.00231   0.00195
  56        2S         -0.09668  -0.03744  -0.05645   0.00392   0.00316
  57        2PX        -0.06259  -0.00579   0.09957  -0.03783  -0.00032
  58        2PY         0.00646   0.06901   0.06707  -0.08766  -0.00308
  59        2PZ         0.00198   0.00379   0.00086  -0.00319   0.06618
  60        3S          0.26865   0.10083   0.15645  -0.01003  -0.00896
  61        3PX        -0.09301  -0.00717   0.14221  -0.04993  -0.00084
  62        3PY         0.00773   0.09862   0.09431  -0.12438  -0.00444
  63        3PZ         0.00203   0.00560   0.00033  -0.00484   0.10246
  64        4S          0.16226   0.08789   0.17708  -0.05476  -0.01163
  65        4PX        -0.02261   0.00595   0.06749  -0.01265  -0.00247
  66        4PY         0.00981   0.03744   0.03974  -0.04901   0.00097
  67        4PZ         0.00071   0.00343   0.00166  -0.00547   0.06152
  68        5D 0       -0.00212   0.00068   0.00435  -0.00179   0.00214
  69        5D+1       -0.00205  -0.00047   0.00200  -0.00046  -0.00475
  70        5D-1        0.00051   0.00131   0.00163  -0.00146  -0.00835
  71        5D+2       -0.00371   0.01187  -0.01190   0.00111  -0.00099
  72        5D-2        0.01097  -0.01042  -0.01121   0.00655   0.00027
  73 5   C  1S          0.05530  -0.00245   0.01338  -0.00045   0.00020
  74        2S          0.08602  -0.00377   0.02099  -0.00073   0.00029
  75        2PX        -0.04378   0.00860  -0.06245  -0.02361  -0.01066
  76        2PY         0.01884   0.02162   0.07991  -0.05060   0.00067
  77        2PZ        -0.00324   0.00146  -0.01358  -0.00224   0.06311
  78        3S         -0.22877   0.01090  -0.05470   0.00207  -0.00102
  79        3PX        -0.06243   0.01415  -0.08962  -0.03400  -0.01578
  80        3PY         0.02721   0.02908   0.11769  -0.07421   0.00123
  81        3PZ        -0.00447   0.00300  -0.01984  -0.00335   0.09201
  82        4S         -0.15823  -0.00177  -0.07449   0.00835   0.00339
  83        4PX        -0.02273   0.01293  -0.04039  -0.02827  -0.01258
  84        4PY         0.01339   0.01504   0.06172  -0.04617  -0.00370
  85        4PZ        -0.00355   0.00046  -0.00823  -0.00125   0.05486
  86        5D 0       -0.00391   0.00071  -0.00824   0.00171   0.00376
  87        5D+1        0.00109  -0.00123   0.00071   0.00209  -0.00211
  88        5D-1       -0.00038  -0.00099  -0.00447   0.00419  -0.00143
  89        5D+2        0.00546  -0.00231   0.00308   0.00282   0.00205
  90        5D-2       -0.00593  -0.00141  -0.01026   0.00079  -0.00258
  91 6   O  1S         -0.00521   0.02968   0.00510   0.03540   0.00101
  92        2S         -0.00849   0.04804   0.00843   0.05735   0.00165
  93        2PX        -0.00716   0.03330  -0.04014  -0.03940   0.00072
  94        2PY         0.00625  -0.02204  -0.01714  -0.10925  -0.00516
  95        2PZ        -0.00001  -0.00120   0.00178  -0.00311   0.08584
  96        3S          0.02496  -0.14378  -0.02677  -0.17200  -0.00498
  97        3PX        -0.01131   0.04727  -0.05883  -0.06008   0.00108
  98        3PY         0.00696  -0.03043  -0.02188  -0.15217  -0.00732
  99        3PZ        -0.00004  -0.00168   0.00269  -0.00443   0.12708
 100        4S          0.02762  -0.13643  -0.02420  -0.19770  -0.00550
 101        4PX        -0.00460   0.03534  -0.03778  -0.03840   0.00072
 102        4PY         0.00531  -0.02275  -0.01790  -0.11290  -0.00559
 103        4PZ        -0.00008  -0.00119   0.00170  -0.00332   0.09358
 104        5D 0       -0.00024  -0.00205   0.00003  -0.00577  -0.00067
 105        5D+1        0.00002  -0.00018   0.00019   0.00003   0.00207
 106        5D-1        0.00001   0.00017  -0.00028   0.00058  -0.01209
 107        5D+2       -0.00040   0.00003  -0.00193  -0.01089  -0.00050
 108        5D-2        0.00261  -0.00518   0.00599   0.00483  -0.00018
 109 7   H  1S          0.03140  -0.01672  -0.03901  -0.09311   0.00291
 110        2S          0.03651  -0.02389  -0.04822  -0.12001   0.00458
 111        3S          0.00567  -0.01031  -0.01464  -0.04926   0.00299
 112        4PX        -0.00395  -0.00004   0.00702   0.00339   0.00003
 113        4PY         0.00442  -0.00195  -0.00222  -0.00725   0.00062
 114        4PZ        -0.00013   0.00011   0.00021   0.00044   0.00726
 115 8   H  1S          0.04357  -0.01792  -0.04063  -0.00637   0.07789
 116        2S          0.05239  -0.02037  -0.05164  -0.00315   0.09636
 117        3S          0.00871  -0.00688  -0.01775  -0.01024   0.03991
 118        4PX         0.00302  -0.00064   0.00069   0.00257   0.00736
 119        4PY        -0.00168   0.00118   0.00445   0.00715  -0.00180
 120        4PZ        -0.00608   0.00250   0.00453  -0.00010  -0.00227
 121 9   H  1S          0.04309  -0.01754  -0.04232  -0.00844  -0.08233
 122        2S          0.05168  -0.01928  -0.05394  -0.00581  -0.10176
 123        3S          0.00875  -0.00599  -0.01894  -0.01005  -0.04374
 124        4PX         0.00269  -0.00045   0.00069   0.00227  -0.00713
 125        4PY        -0.00129   0.00106   0.00419   0.00719   0.00139
 126        4PZ         0.00619  -0.00259  -0.00479  -0.00039  -0.00305
 127 10  H  1S         -0.04326  -0.13993   0.06638  -0.03795  -0.00106
 128        2S         -0.04566  -0.16089   0.08675  -0.04623  -0.00260
 129        3S         -0.01092  -0.04388   0.02995  -0.02658  -0.00113
 130        4PX         0.00723  -0.00357  -0.00439   0.00747   0.00055
 131        4PY        -0.00509  -0.01770   0.00618  -0.00196  -0.00054
 132        4PZ        -0.00058  -0.00033   0.00064  -0.00080   0.00939
 133 11  H  1S          0.06149   0.06326   0.07548  -0.06577  -0.00113
 134        2S          0.06929   0.07410   0.09363  -0.08344  -0.00269
 135        3S          0.00960   0.00920   0.02302  -0.04093  -0.00217
 136        4PX        -0.00079   0.00295   0.00696  -0.00267   0.00000
 137        4PY        -0.00996  -0.00932  -0.00838   0.00699  -0.00019
 138        4PZ        -0.00034  -0.00061  -0.00046   0.00042   0.00448
 139 12  H  1S         -0.05929   0.01459  -0.00812  -0.03664  -0.02183
 140        2S         -0.07321   0.01613  -0.01089  -0.04636  -0.02701
 141        3S         -0.01295   0.00243  -0.00218  -0.01506  -0.01069
 142        4PX         0.00569  -0.00193  -0.00307   0.00351   0.00186
 143        4PY         0.00751  -0.00027   0.00520   0.00041   0.00207
 144        4PZ        -0.00343   0.00084  -0.00108  -0.00191   0.00274
 145 13  H  1S         -0.05835   0.00080  -0.04888   0.00469   0.04735
 146        2S         -0.07035   0.00072  -0.06343   0.00477   0.06103
 147        3S         -0.01187   0.00040  -0.02364   0.00340   0.03199
 148        4PX        -0.00034   0.00075  -0.00205  -0.00142  -0.00251
 149        4PY        -0.00154   0.00096   0.00286  -0.00259   0.00177
 150        4PZ         0.00972   0.00040   0.00651  -0.00075  -0.00337
 151 14  H  1S         -0.05886  -0.01138  -0.06308   0.03350  -0.02953
 152        2S         -0.07162  -0.01514  -0.07952   0.04141  -0.04170
 153        3S         -0.01335  -0.00513  -0.02810   0.01875  -0.02244
 154        4PX        -0.00120   0.00207  -0.00306  -0.00199   0.00041
 155        4PY        -0.00779  -0.00079  -0.00369   0.00175  -0.00416
 156        4PZ        -0.00574  -0.00128  -0.00638   0.00279   0.00117
                          16        17        18        19        20
                           O         O         O         O         O
     Eigenvalues --    -0.43133  -0.42354  -0.40818  -0.39801  -0.38554
   1 1   C  1S          0.00022  -0.00017  -0.00275  -0.00001  -0.00229
   2        2S          0.00033  -0.00031  -0.00445   0.00004  -0.00368
   3        2PX        -0.01193  -0.10433   0.07328   0.11079   0.03232
   4        2PY         0.02272   0.08622   0.06631  -0.07992  -0.00221
   5        2PZ        -0.09240   0.02811   0.01712   0.02211  -0.02172
   6        3S         -0.00025   0.00206   0.01441  -0.00035   0.01091
   7        3PX        -0.01693  -0.15165   0.11218   0.16022   0.04948
   8        3PY         0.03271   0.12374   0.09505  -0.11260  -0.00371
   9        3PZ        -0.13448   0.04084   0.02465   0.03170  -0.03123
  10        4S         -0.00638  -0.01692   0.04611  -0.01484   0.02550
  11        4PX        -0.01264  -0.11093   0.09896   0.10384   0.04196
  12        4PY         0.01939   0.07713   0.05701  -0.07243  -0.00168
  13        4PZ        -0.09080   0.02875   0.01645   0.02237  -0.02324
  14        5D 0        0.00234   0.01230  -0.00569  -0.01405  -0.00286
  15        5D+1        0.00733  -0.00322  -0.00231  -0.00216   0.00329
  16        5D-1       -0.00508   0.00243   0.00044  -0.00058  -0.00051
  17        5D+2        0.00148   0.00663   0.00755  -0.01438   0.00129
  18        5D-2        0.00189   0.00137   0.00969  -0.00011   0.00213
  19 2   C  1S          0.00218   0.00879   0.01285  -0.00872   0.00165
  20        2S          0.00347   0.01408   0.02011  -0.01374   0.00245
  21        2PX        -0.01471  -0.01104  -0.05740  -0.07491   0.00067
  22        2PY        -0.00057   0.03443  -0.14428   0.04883  -0.04873
  23        2PZ        -0.03733   0.00732  -0.00278  -0.00651   0.01133
  24        3S         -0.01137  -0.04310  -0.06847   0.04255  -0.00753
  25        3PX        -0.02224  -0.01794  -0.08709  -0.10731   0.00123
  26        3PY        -0.00003   0.05095  -0.20809   0.06990  -0.06942
  27        3PZ        -0.05957   0.01174  -0.00361  -0.00959   0.01698
  28        4S         -0.00676  -0.02417  -0.03783  -0.00082   0.01449
  29        4PX        -0.01603  -0.01179  -0.07283  -0.05586  -0.00158
  30        4PY        -0.00069   0.00415   0.01284  -0.01937   0.01009
  31        4PZ        -0.03855   0.00663  -0.00029  -0.01013   0.01404
  32        5D 0       -0.00004   0.00021   0.00315  -0.00102   0.00135
  33        5D+1        0.00808  -0.00321  -0.00285  -0.00367   0.00323
  34        5D-1       -0.00040   0.00008  -0.00097  -0.00146   0.00181
  35        5D+2        0.00233   0.01256   0.01542  -0.02063   0.00873
  36        5D-2       -0.00114  -0.00566   0.00405   0.00561   0.00178
  37 3   N  1S         -0.00309  -0.01547  -0.00280   0.00278  -0.01087
  38        2S         -0.00496  -0.02477  -0.00446   0.00464  -0.01758
  39        2PX         0.00878   0.00956   0.02016   0.08748   0.03104
  40        2PY        -0.01050  -0.02956   0.03664  -0.00318   0.06711
  41        2PZ         0.02589  -0.01278  -0.01519  -0.02971   0.02172
  42        3S          0.01415   0.07273   0.01221  -0.01611   0.05543
  43        3PX         0.01350   0.01197   0.03535   0.12749   0.04639
  44        3PY        -0.01593  -0.04631   0.05480  -0.00322   0.09557
  45        3PZ         0.03803  -0.01911  -0.02321  -0.04469   0.03219
  46        4S          0.02413   0.10035   0.03724  -0.01013   0.06317
  47        4PX         0.00714   0.02695  -0.03401   0.09314   0.01922
  48        4PY        -0.00992  -0.01450   0.00641   0.01876   0.04465
  49        4PZ         0.03519  -0.01654  -0.01795  -0.03730   0.03151
  50        5D 0       -0.00036   0.00150  -0.00010  -0.00022   0.00107
  51        5D+1        0.00725  -0.00114  -0.00064  -0.00012  -0.00090
  52        5D-1        0.00142  -0.00021  -0.00123  -0.00111   0.00040
  53        5D+2       -0.00312  -0.01245   0.00313  -0.00768   0.01400
  54        5D-2        0.00155   0.00040   0.01146   0.00648   0.00005
  55 4   C  1S          0.00441   0.01250  -0.00038   0.00404   0.00340
  56        2S          0.00712   0.02002  -0.00078   0.00666   0.00537
  57        2PX        -0.01834  -0.04651  -0.08257  -0.09133   0.02331
  58        2PY         0.02197   0.07007   0.03447   0.03254  -0.12821
  59        2PZ         0.07444  -0.01911  -0.01126  -0.01386   0.00990
  60        3S         -0.02135  -0.06137   0.00703  -0.02090  -0.00761
  61        3PX        -0.02639  -0.06457  -0.12485  -0.13125   0.03324
  62        3PY         0.03197   0.10411   0.04859   0.04635  -0.18550
  63        3PZ         0.11883  -0.03032  -0.01701  -0.02094   0.01544
  64        4S         -0.01873  -0.05856   0.03421  -0.01706  -0.02736
  65        4PX        -0.01616  -0.02652  -0.07492  -0.05966   0.01896
  66        4PY         0.02567   0.07364   0.00696   0.04285  -0.13807
  67        4PZ         0.07263  -0.01819  -0.00954  -0.01515   0.01111
  68        5D 0        0.00332  -0.00143  -0.00061  -0.00165  -0.00208
  69        5D+1        0.00850  -0.00206  -0.00101   0.00094  -0.00183
  70        5D-1       -0.00861   0.00370   0.00184   0.00204  -0.00417
  71        5D+2       -0.00150   0.00236  -0.00351  -0.00238   0.02653
  72        5D-2        0.00368   0.01151   0.00607   0.01588   0.01472
  73 5   C  1S          0.00018   0.00132   0.00282   0.00483  -0.00664
  74        2S          0.00024   0.00207   0.00446   0.00761  -0.01057
  75        2PX         0.01401   0.12383   0.05897   0.11089   0.00288
  76        2PY         0.01684   0.06617  -0.06097   0.01755   0.14851
  77        2PZ         0.16421  -0.02092   0.00396   0.01800  -0.01703
  78        3S         -0.00177  -0.00741  -0.01480  -0.02354   0.03383
  79        3PX         0.02039   0.17913   0.08560   0.16138   0.00065
  80        3PY         0.02427   0.09541  -0.08781   0.02500   0.21209
  81        3PZ         0.23752  -0.03025   0.00564   0.02575  -0.02482
  82        4S          0.00906  -0.00092  -0.01305  -0.01934   0.01497
  83        4PX         0.00855   0.11384   0.06109   0.10572   0.02240
  84        4PY         0.01235   0.06865  -0.05383   0.01946   0.15782
  85        4PZ         0.15551  -0.02204   0.00342   0.01819  -0.02092
  86        5D 0        0.01282  -0.00152   0.00486   0.00336  -0.00878
  87        5D+1       -0.00026  -0.00541  -0.00027  -0.00284  -0.00394
  88        5D-1       -0.00900  -0.00641   0.00292  -0.00499  -0.00990
  89        5D+2        0.00335  -0.00295  -0.00640  -0.00160   0.01651
  90        5D-2       -0.00226   0.01257   0.00360   0.01118   0.00926
  91 6   O  1S         -0.00005   0.00727  -0.03228   0.01567  -0.01288
  92        2S         -0.00008   0.01172  -0.05237   0.02553  -0.02101
  93        2PX        -0.01040  -0.00903  -0.08008  -0.01045  -0.03248
  94        2PY         0.00205  -0.02500   0.17604  -0.09801   0.06290
  95        2PZ        -0.03140   0.00585   0.00392  -0.01051   0.01507
  96        3S          0.00022  -0.03533   0.15766  -0.07806   0.06553
  97        3PX        -0.01500  -0.01234  -0.11458  -0.01860  -0.04619
  98        3PY         0.00262  -0.03548   0.24026  -0.13316   0.08475
  99        3PZ        -0.04649   0.00854   0.00533  -0.01515   0.02189
 100        4S          0.00086  -0.04258   0.19958  -0.09445   0.07059
 101        4PX        -0.01062  -0.00901  -0.08892  -0.00856  -0.04374
 102        4PY         0.00246  -0.02839   0.20038  -0.11346   0.07622
 103        4PZ        -0.03448   0.00676   0.00449  -0.01240   0.01837
 104        5D 0        0.00019  -0.00194   0.00922  -0.00429   0.00349
 105        5D+1       -0.00026  -0.00005   0.00017  -0.00029   0.00055
 106        5D-1        0.00413  -0.00067  -0.00065   0.00125  -0.00170
 107        5D+2        0.00002  -0.00195   0.01203  -0.00813   0.00336
 108        5D-2        0.00133   0.00020   0.01177   0.00227   0.00331
 109 7   H  1S         -0.02434  -0.09878  -0.03414   0.10448   0.01045
 110        2S         -0.03360  -0.13648  -0.05576   0.15569   0.01168
 111        3S         -0.01579  -0.06942  -0.03790   0.08863   0.00395
 112        4PX         0.00035  -0.00224   0.00511   0.00322   0.00018
 113        4PY        -0.00219  -0.00924  -0.00070   0.00959   0.00162
 114        4PZ        -0.00558   0.00225   0.00134   0.00076  -0.00138
 115 8   H  1S         -0.05378   0.08505  -0.01194  -0.05592  -0.03062
 116        2S         -0.07130   0.11701  -0.02009  -0.07647  -0.04502
 117        3S         -0.03190   0.05139   0.00364  -0.04399  -0.01761
 118        4PX        -0.00566   0.00176   0.00289   0.00251  -0.00066
 119        4PY         0.00286   0.00304   0.00488  -0.00349   0.00101
 120        4PZ         0.00069  -0.00856   0.00209   0.00783   0.00206
 121 9   H  1S          0.07289   0.04001  -0.03796  -0.08236   0.00254
 122        2S          0.09831   0.05667  -0.05640  -0.11502   0.00240
 123        3S          0.04412   0.02426  -0.01614  -0.06167   0.00447
 124        4PX         0.00586  -0.00252   0.00071   0.00036   0.00206
 125        4PY         0.00003   0.00458   0.00534  -0.00332  -0.00012
 126        4PZ         0.00354   0.00682  -0.00319  -0.00849  -0.00109
 127 10  H  1S          0.01173   0.04245  -0.03041   0.01511  -0.05782
 128        2S          0.01361   0.05881  -0.06086   0.03815  -0.10492
 129        3S          0.00584   0.02511  -0.02030   0.02196  -0.06167
 130        4PX         0.00006   0.00076   0.00262   0.00215   0.00178
 131        4PY         0.00092   0.00520  -0.00374   0.00130  -0.00461
 132        4PZ         0.00243  -0.00086  -0.00154  -0.00207   0.00138
 133 11  H  1S          0.01723   0.04284   0.03648   0.02761  -0.11889
 134        2S          0.01932   0.05489   0.04723   0.03670  -0.15971
 135        3S          0.00438   0.01364   0.04472  -0.00264  -0.06292
 136        4PX        -0.00044  -0.00067  -0.00284  -0.00318  -0.00116
 137        4PY        -0.00231  -0.00482  -0.00397  -0.00366   0.00789
 138        4PZ         0.00438  -0.00160  -0.00112  -0.00116   0.00093
 139 12  H  1S         -0.02556   0.11733   0.00081   0.07260   0.09861
 140        2S         -0.03352   0.15823   0.00121   0.10040   0.13631
 141        3S         -0.01429   0.07571  -0.00253   0.05602   0.07041
 142        4PX         0.00376  -0.00555   0.00320  -0.00070  -0.00987
 143        4PY         0.00352  -0.00649  -0.00370  -0.00523   0.00049
 144        4PZ         0.00893   0.00430   0.00016   0.00451   0.00333
 145 13  H  1S          0.13353  -0.01102   0.02418   0.02654  -0.04147
 146        2S          0.17944  -0.01296   0.03491   0.03822  -0.05517
 147        3S          0.08886  -0.00572   0.01545   0.02035  -0.03264
 148        4PX        -0.00316   0.00752   0.00292   0.00602   0.00068
 149        4PY         0.00546   0.00368  -0.00316   0.00203   0.00810
 150        4PZ        -0.00900  -0.00001  -0.00322  -0.00270   0.00402
 151 14  H  1S         -0.08747  -0.03222   0.04425  -0.02079  -0.10374
 152        2S         -0.12248  -0.04132   0.06300  -0.02759  -0.14737
 153        3S         -0.06131  -0.01964   0.03290  -0.01432  -0.09181
 154        4PX         0.00259   0.00743   0.00324   0.00661   0.00244
 155        4PY        -0.01041   0.00028   0.00161  -0.00102  -0.00210
 156        4PZ         0.00256  -0.00383   0.00397  -0.00049  -0.00882
                          21        22        23        24        25
                           O         O         O         O         V
     Eigenvalues --    -0.38056  -0.31297  -0.25701  -0.16275   0.02307
   1 1   C  1S         -0.00011   0.00025  -0.01705  -0.00040   0.00479
   2        2S         -0.00017   0.00041  -0.02712  -0.00062   0.00751
   3        2PX         0.01272  -0.00292   0.05925   0.00222   0.00166
   4        2PY        -0.00222  -0.00009   0.06907   0.00045   0.00901
   5        2PZ        -0.12676  -0.03457   0.00081   0.00987   0.02247
   6        3S          0.00062  -0.00141   0.08223   0.00085  -0.01614
   7        3PX         0.01842  -0.00421   0.08346   0.00302   0.00165
   8        3PY        -0.00296  -0.00003   0.10106   0.00083   0.00861
   9        3PZ        -0.18160  -0.04783   0.00133   0.01514   0.02764
  10        4S         -0.00388   0.00589   0.14490   0.01321  -0.13127
  11        4PX         0.01161   0.00220   0.08688   0.01094   0.02514
  12        4PY        -0.00183  -0.00393   0.05684  -0.00354   0.04205
  13        4PZ        -0.14126  -0.09022   0.00466  -0.06876   0.23036
  14        5D 0       -0.00044   0.00076   0.00305  -0.00021   0.00093
  15        5D+1        0.01996   0.00991  -0.00029  -0.00919   0.03755
  16        5D-1       -0.00100   0.00298   0.00009  -0.00366   0.01589
  17        5D+2       -0.00119   0.00057   0.00197  -0.00076   0.00078
  18        5D-2        0.00125   0.00019   0.00150  -0.00016  -0.00068
  19 2   C  1S          0.00008  -0.00074  -0.00720   0.00062  -0.00044
  20        2S          0.00015  -0.00116  -0.01191   0.00099  -0.00079
  21        2PX        -0.01642   0.00693  -0.02097  -0.00469   0.00782
  22        2PY         0.00481  -0.00185  -0.02282   0.00233  -0.00314
  23        2PZ         0.08638   0.07694   0.00033  -0.07758   0.21971
  24        3S         -0.00102   0.00320   0.03625  -0.00269   0.00162
  25        3PX        -0.02377   0.00867  -0.03674  -0.00783   0.01173
  26        3PY         0.00654  -0.00279  -0.03909   0.00262  -0.00728
  27        3PZ         0.12784   0.11335   0.00030  -0.12578   0.36101
  28        4S         -0.00288  -0.00245   0.10039  -0.02233  -0.02753
  29        4PX        -0.01256   0.00908   0.07685  -0.01173   0.00414
  30        4PY        -0.00641   0.00607  -0.05076   0.01112   0.01798
  31        4PZ         0.11035   0.13494  -0.00400  -0.09804   0.51211
  32        5D 0       -0.00059   0.00213   0.00154   0.00131   0.00117
  33        5D+1        0.02080  -0.01703   0.00199  -0.01946  -0.00748
  34        5D-1        0.01463   0.03968  -0.00172   0.02697  -0.02568
  35        5D+2       -0.00185  -0.00050  -0.01989   0.00064   0.00194
  36        5D-2        0.00126   0.00119   0.06579   0.00160   0.00088
  37 3   N  1S         -0.00010   0.00199   0.01793  -0.00140   0.00450
  38        2S         -0.00011   0.00319   0.02859  -0.00228   0.00716
  39        2PX         0.02106  -0.01154   0.07240   0.00084  -0.00441
  40        2PY        -0.00830  -0.00030  -0.03386   0.00661   0.01937
  41        2PZ         0.12915  -0.14840  -0.00129  -0.12589  -0.14336
  42        3S         -0.00097  -0.00882  -0.07983   0.00758  -0.01657
  43        3PX         0.03069  -0.01651   0.09516   0.00132  -0.00573
  44        3PY        -0.01171  -0.00094  -0.04897   0.01000   0.02538
  45        3PZ         0.19475  -0.21570  -0.00174  -0.17274  -0.19916
  46        4S          0.00594  -0.02097  -0.24175   0.00596  -0.11835
  47        4PX         0.02815  -0.02658   0.13809  -0.01057  -0.03662
  48        4PY        -0.00279   0.00420  -0.04789   0.02456   0.07512
  49        4PZ         0.17381  -0.24589   0.00005  -0.29804  -0.36676
  50        5D 0       -0.00031   0.00133  -0.00311  -0.00194   0.00146
  51        5D+1       -0.00474  -0.00921  -0.00040   0.02527  -0.01732
  52        5D-1        0.00409  -0.00047   0.00022   0.01032   0.01179
  53        5D+2       -0.00391   0.00063   0.00326  -0.00020  -0.00228
  54        5D-2        0.00241  -0.00055  -0.00063   0.00071   0.00058
  55 4   C  1S          0.00249  -0.00395   0.00311   0.00831   0.00267
  56        2S          0.00406  -0.00635   0.00483   0.01373   0.00443
  57        2PX        -0.02943   0.00580  -0.01253  -0.00580  -0.00761
  58        2PY         0.03136  -0.00525  -0.02678   0.00254  -0.00051
  59        2PZ         0.03916  -0.10152   0.00092   0.23376   0.06573
  60        3S         -0.01297   0.01663  -0.01164  -0.04150  -0.01146
  61        3PX        -0.04304   0.00794  -0.01584  -0.00804  -0.01117
  62        3PY         0.04577  -0.00697  -0.03782   0.00413  -0.00372
  63        3PZ         0.05614  -0.15458   0.00128   0.35600   0.10323
  64        4S         -0.01419   0.05198  -0.09158  -0.08178  -0.06538
  65        4PX        -0.02098   0.02095  -0.07885   0.00391  -0.02416
  66        4PY         0.03802  -0.03196  -0.02874  -0.02088  -0.06474
  67        4PZ         0.05293  -0.12446  -0.00168   0.49363   0.16737
  68        5D 0       -0.00067   0.00029  -0.00211  -0.00465  -0.00295
  69        5D+1       -0.01753   0.01515  -0.00073   0.00542   0.01779
  70        5D-1       -0.00281   0.00803  -0.00032   0.00475   0.01494
  71        5D+2       -0.00547   0.00106  -0.00344   0.00162   0.00502
  72        5D-2        0.00115  -0.00006   0.00341  -0.00017   0.00079
  73 5   C  1S          0.00299  -0.00029   0.00146  -0.00424  -0.00262
  74        2S          0.00473  -0.00049   0.00237  -0.00680  -0.00430
  75        2PX         0.03605  -0.00761   0.01065  -0.00883  -0.00529
  76        2PY        -0.02759   0.00308   0.00930   0.00646   0.01833
  77        2PZ        -0.07477   0.05081   0.00081  -0.02713   0.01862
  78        3S         -0.01464   0.00365  -0.01027   0.02164   0.01727
  79        3PX         0.05233  -0.01039   0.01314  -0.01446  -0.01130
  80        3PY        -0.03895   0.00376   0.01463   0.00877   0.01921
  81        3PZ        -0.10685   0.07183   0.00107  -0.03712   0.02119
  82        4S         -0.01169  -0.03184   0.06016   0.00671  -0.00996
  83        4PX         0.03027   0.01031  -0.00841   0.01368   0.03302
  84        4PY        -0.03344   0.00927   0.02488   0.02718   0.15234
  85        4PZ        -0.08250   0.05274  -0.00642  -0.02861   0.12507
  86        5D 0       -0.00620   0.00719  -0.00118  -0.01371  -0.00585
  87        5D+1       -0.00696   0.01090  -0.00063  -0.02466  -0.00875
  88        5D-1        0.00786  -0.00768  -0.00099   0.01789   0.00867
  89        5D+2       -0.00556   0.00128   0.00258  -0.00162  -0.00137
  90        5D-2        0.00307  -0.00105   0.00306   0.00087   0.00161
  91 6   O  1S          0.00245  -0.00017   0.00120   0.00029   0.00131
  92        2S          0.00400  -0.00029   0.00208   0.00047   0.00211
  93        2PX        -0.00151   0.01002   0.27228   0.00149  -0.00687
  94        2PY        -0.01491  -0.00298   0.05580  -0.00201   0.00645
  95        2PZ         0.09492   0.20614  -0.00823   0.10102  -0.15497
  96        3S         -0.01250   0.00126  -0.00920  -0.00168  -0.00594
  97        3PX        -0.00274   0.01446   0.38724   0.00153  -0.00968
  98        3PY        -0.02042  -0.00412   0.07883  -0.00273   0.00802
  99        3PZ         0.13927   0.29756  -0.01186   0.13820  -0.20596
 100        4S         -0.01367  -0.00333   0.01279  -0.00246  -0.02187
 101        4PX         0.00001   0.01292   0.39371   0.00479  -0.01339
[...]
 116         V                 2.469734          3.844086
 117         V                 2.482128          4.874049
 118         V                 2.484303          4.705755
 119         V                 2.537053          4.327555
 120         V                 2.549937          4.335561
 121         V                 2.629735          4.524092
 122         V                 2.644787          4.451199
 123         V                 2.694004          5.607852
 124         V                 2.760648          4.673116
 125         V                 2.813981          4.687350
 126         V                 2.837579          5.091393
 127         V                 2.844740          5.255686
 128         V                 2.888386          4.729116
 129         V                 2.925451          4.628726
 130         V                 3.004610          5.655219
 131         V                 3.079138          5.978481
 132         V                 3.160295          5.513797
 133         V                 3.225857          6.244584
 134         V                 3.339493          5.161885
 135         V                 3.378416          6.656405
 136         V                 3.555810          6.231960
 137         V                 3.597264          6.238541
 138         V                 3.744831          7.083290
 139         V                 3.749665          6.830340
 140         V                 3.768719          6.662987
 141         V                 3.788208          7.120752
 142         V                 3.792656          6.936461
 143         V                 3.796556          6.611063
 144         V                 4.102984          7.386438
 145         V                 4.113275          7.379815
 146         V                 4.825851          9.289086
 147         V                 4.911509         11.702700
 148         V                 4.962432          9.844498
 149         V                 5.070287         11.521529
 150         V                 5.654416         11.796045
 151         V                23.779975         60.289165
 152         V                23.801251         60.297510
 153         V                23.900928         60.338281
 154         V                23.907175         60.337463
 155         V                35.552521         89.005289
 156         V                49.992754        123.699795
 Orbital energies and kinetic energies (beta):
                                 1                 2
   1         O               -19.077827         29.130508
   2         O               -14.357918         22.050856
   3         O               -10.269249         15.962420
   4         O               -10.190202         15.970147
   5         O               -10.181522         15.957041
   6         O               -10.180447         15.956093
   7         O                -1.032350          2.466031
   8         O                -0.934318          2.168296
   9         O                -0.765843          1.480086
  10         O                -0.731075          1.426615
  11         O                -0.626628          1.590136
  12         O                -0.594406          1.557773
  13         O                -0.489700          1.410569
  14         O                -0.478686          1.523033
  15         O                -0.450028          1.099059
  16         O                -0.421969          1.110245
  17         O                -0.419290          0.984093
  18         O                -0.405009          2.051556
  19         O                -0.395486          1.397937
  20         O                -0.381224          1.288152
  21         O                -0.372194          1.385523
  22         O                -0.293069          1.937354
  23         O                -0.254668          2.363461
  24         V                -0.047537          1.406956
  25         V                 0.024309          0.728446
  26         V                 0.043980          1.707324
  27         V                 0.053851          0.656832
  28         V                 0.072715          0.692756
  29         V                 0.096895          0.692726
  30         V                 0.112792          0.715979
  31         V                 0.123896          0.810877
  32         V                 0.124873          0.876596
  33         V                 0.132597          0.811228
  34         V                 0.193663          1.667395
  35         V                 0.232793          1.274268
  36         V                 0.254909          1.108806
  37         V                 0.270142          1.457929
  38         V                 0.293946          1.068381
  39         V                 0.300909          0.952295
  40         V                 0.314661          1.178409
  41         V                 0.325538          1.064319
  42         V                 0.356080          1.376126
  43         V                 0.394464          2.039167
  44         V                 0.419850          1.432427
  45         V                 0.422053          1.517624
  46         V                 0.426132          1.879313
  47         V                 0.462768          1.540094
  48         V                 0.520118          1.963582
  49         V                 0.533312          1.508480
  50         V                 0.543879          1.876443
  51         V                 0.554201          1.868019
  52         V                 0.561099          1.834223
  53         V                 0.570218          1.874159
  54         V                 0.576903          1.847391
  55         V                 0.602882          1.910192
  56         V                 0.627432          2.815150
  57         V                 0.635278          2.326816
  58         V                 0.661845          2.378277
  59         V                 0.679086          2.194913
  60         V                 0.698128          2.049872
  61         V                 0.724445          2.189428
  62         V                 0.744584          2.013508
  63         V                 0.808770          1.988078
  64         V                 0.861155          1.793986
  65         V                 0.907417          2.476863
  66         V                 0.948630          2.101539
  67         V                 0.975074          2.194948
  68         V                 1.016341          1.970905
  69         V                 1.027806          2.165529
  70         V                 1.036552          2.327721
  71         V                 1.119074          2.405043
  72         V                 1.151085          2.158519
  73         V                 1.210645          2.097971
  74         V                 1.264315          2.269785
  75         V                 1.272439          2.454189
  76         V                 1.383636          2.215131
  77         V                 1.402606          2.306768
  78         V                 1.434333          2.491829
  79         V                 1.437673          2.104698
  80         V                 1.450037          2.116225
  81         V                 1.479472          2.538187
  82         V                 1.484320          2.726798
  83         V                 1.494988          2.391470
  84         V                 1.505410          2.364884
  85         V                 1.514009          2.593362
  86         V                 1.550855          2.798689
  87         V                 1.555499          2.634262
  88         V                 1.627346          2.693948
  89         V                 1.636527          2.677657
  90         V                 1.670940          3.195436
  91         V                 1.712953          2.974028
  92         V                 1.752487          3.012512
  93         V                 1.768039          3.058498
  94         V                 1.792032          2.817173
  95         V                 1.804052          2.929606
  96         V                 1.836636          3.184880
  97         V                 1.895522          3.420223
  98         V                 1.906733          3.048183
  99         V                 1.917473          3.086490
 100         V                 1.967954          3.504191
 101         V                 2.028654          3.143488
 102         V                 2.085935          3.675784
 103         V                 2.144493          3.664409
 104         V                 2.177920          3.613658
 105         V                 2.223077          3.727102
 106         V                 2.273496          3.709786
 107         V                 2.330166          4.067057
 108         V                 2.332847          3.831322
 109         V                 2.348404          4.145090
 110         V                 2.353885          4.226686
 111         V                 2.404577          3.925047
 112         V                 2.418311          3.925395
 113         V                 2.434249          3.885091
 114         V                 2.448497          4.046237
 115         V                 2.455154          3.739540
 116         V                 2.473419          3.892288
 117         V                 2.483260          4.951025
 118         V                 2.486530          4.598138
 119         V                 2.540637          4.253538
 120         V                 2.556480          4.367600
 121         V                 2.634697          4.498167
 122         V                 2.649802          4.420458
 123         V                 2.718130          5.558252
 124         V                 2.767299          4.734005
 125         V                 2.815901          4.690181
 126         V                 2.842838          4.720950
 127         V                 2.872391          5.647740
 128         V                 2.895052          4.771777
 129         V                 2.934504          4.689227
 130         V                 3.007632          5.687399
 131         V                 3.081063          5.951418
 132         V                 3.163273          5.490722
 133         V                 3.231286          6.259736
 134         V                 3.346330          5.161613
 135         V                 3.381202          6.653809
 136         V                 3.560567          6.114087
 137         V                 3.603024          6.371340
 138         V                 3.748784          6.982947
 139         V                 3.752427          6.843248
 140         V                 3.770994          6.533660
 141         V                 3.790300          6.780403
 142         V                 3.795616          6.968895
 143         V                 3.798662          7.128893
 144         V                 4.108355          7.490201
 145         V                 4.120730          7.268745
 146         V                 4.829298          9.285811
 147         V                 4.921863         11.711331
 148         V                 4.968665          9.852540
 149         V                 5.072809         11.503813
 150         V                 5.657066         11.793083
 151         V                23.783424         60.286764
 152         V                23.812622         60.289145
 153         V                23.900660         60.337065
 154         V                23.906789         60.337426
 155         V                35.553503         89.004130
 156         V                49.995152        123.697864
 Total kinetic energy from orbitals= 2.861031186252D+02
                          Isotropic Fermi Contact Couplings
        Atom                 a.u.       MegaHertz       Gauss      10(-4) cm-1
     1  C(13)             -0.00477      -5.35743      -1.91166      -1.78705
     2  C(13)              0.00130       1.45987       0.52092       0.48696
     3  N(14)             -0.01523      -4.91968      -1.75547      -1.64103
     4  C(13)              0.07315      82.24007      29.34530      27.43233
     5  C(13)             -0.02458     -27.63256      -9.85999      -9.21723
     6  O(17)              0.00693      -4.20219      -1.49945      -1.40170
     7  H(1)               0.00002       0.07613       0.02716       0.02539
     8  H(1)               0.00209       9.36411       3.34135       3.12353
     9  H(1)               0.00272      12.14051       4.33203       4.04964
    10  H(1)              -0.00109      -4.86360      -1.73545      -1.62232
    11  H(1)              -0.01197     -53.49011     -19.08660     -17.84238
    12  H(1)               0.00324      14.46062       5.15991       4.82354
    13  H(1)               0.02565     114.63779      40.90561      38.23905
    14  H(1)               0.00988      44.18185      15.76518      14.73748
 --------------------------------------------------------
       Center         ----  Spin Dipole Couplings  ----
                      3XX-RR        3YY-RR        3ZZ-RR
 --------------------------------------------------------
     1   Atom        0.004145     -0.001414     -0.002731
     2   Atom       -0.037874     -0.046370      0.084244
     3   Atom       -0.074317     -0.086595      0.160913
     4   Atom       -0.508173     -0.504662      1.012834
     5   Atom        0.010058     -0.003771     -0.006287
     6   Atom       -0.182429     -0.192607      0.375036
     7   Atom        0.001601      0.001278     -0.002880
     8   Atom        0.003519     -0.001428     -0.002090
     9   Atom        0.003586     -0.001423     -0.002162
    10   Atom       -0.007773      0.015916     -0.008143
    11   Atom       -0.058146      0.059486     -0.001340
    12   Atom        0.015926     -0.008949     -0.006977
    13   Atom        0.004925     -0.003203     -0.001721
    14   Atom        0.002676      0.004503     -0.007179
 --------------------------------------------------------
                        XY            XZ            YZ
 --------------------------------------------------------
     1   Atom        0.002819     -0.000035      0.000022
     2   Atom       -0.004044      0.008357     -0.004902
     3   Atom        0.011115     -0.014374     -0.026231
     4   Atom       -0.005379     -0.044265      0.012844
     5   Atom       -0.013631      0.005567     -0.003992
     6   Atom       -0.002985      0.008442     -0.011005
     7   Atom        0.004531     -0.000230     -0.000213
     8   Atom        0.002047     -0.001656     -0.000761
     9   Atom        0.002192      0.001387      0.000633
    10   Atom        0.003896     -0.001028     -0.001236
    11   Atom       -0.019646     -0.002310      0.007487
    12   Atom       -0.001042      0.000050      0.000354
    13   Atom       -0.007313      0.006197     -0.003808
    14   Atom       -0.011126     -0.001555      0.001101
 --------------------------------------------------------


 ---------------------------------------------------------------------------------
              Anisotropic Spin Dipole Couplings in Principal Axis System
 ---------------------------------------------------------------------------------

       Atom             a.u.   MegaHertz   Gauss  10(-4) cm-1        Axes

              Baa    -0.0027    -0.368    -0.131    -0.123  0.0886 -0.2044  0.9749
     1 C(13)  Bbb    -0.0026    -0.347    -0.124    -0.116 -0.3756  0.8996  0.2228
              Bcc     0.0053     0.714     0.255     0.238  0.9225  0.3859 -0.0029
 
              Baa    -0.0480    -6.442    -2.299    -2.149  0.3625  0.9319  0.0116
     2 C(13)  Bbb    -0.0370    -4.967    -1.772    -1.657  0.9294 -0.3605 -0.0786
              Bcc     0.0850    11.408     4.071     3.805  0.0691 -0.0393  0.9968
 
              Baa    -0.0942    -3.632    -1.296    -1.211 -0.4506  0.8903  0.0662
     3 N(14)  Bbb    -0.0705    -2.719    -0.970    -0.907  0.8904  0.4428  0.1055
              Bcc     0.1647     6.351     2.266     2.118 -0.0646 -0.1064  0.9922
 
              Baa    -0.5126   -68.792   -24.547   -22.946  0.8436  0.5366  0.0200
     4 C(13)  Bbb    -0.5016   -67.309   -24.017   -22.452 -0.5362  0.8438 -0.0228
              Bcc     1.0142   136.100    48.564    45.398 -0.0291  0.0086  0.9995
 
              Baa    -0.0122    -1.637    -0.584    -0.546  0.4988  0.8596  0.1108
     5 C(13)  Bbb    -0.0080    -1.073    -0.383    -0.358 -0.2713  0.0335  0.9619
              Bcc     0.0202     2.710     0.967     0.904  0.8231 -0.5099  0.2499
 
              Baa    -0.1935    14.005     4.997     4.671  0.2486  0.9685  0.0151
     6 O(17)  Bbb    -0.1818    13.157     4.695     4.389  0.9685 -0.2483 -0.0196
              Bcc     0.3754   -27.162    -9.692    -9.060  0.0152 -0.0194  0.9997
 
              Baa    -0.0031    -1.651    -0.589    -0.551 -0.6948  0.7186 -0.0296
     7 H(1)   Bbb    -0.0029    -1.542    -0.550    -0.514  0.0048  0.0458  0.9989
              Bcc     0.0060     3.193     1.139     1.065  0.7192  0.6939 -0.0353
 
              Baa    -0.0026    -1.399    -0.499    -0.467  0.1228  0.3751  0.9188
     8 H(1)   Bbb    -0.0021    -1.129    -0.403    -0.377 -0.4022  0.8652 -0.2994
              Bcc     0.0047     2.528     0.902     0.843  0.9073  0.3328 -0.2571
 
              Baa    -0.0025    -1.352    -0.482    -0.451 -0.0702 -0.3860  0.9198
     9 H(1)   Bbb    -0.0022    -1.179    -0.421    -0.393 -0.4018  0.8549  0.3281
              Bcc     0.0047     2.531     0.903     0.844  0.9130  0.3465  0.2151
 
              Baa    -0.0091    -4.872    -1.739    -1.625  0.7406 -0.0823  0.6669
    10 H(1)   Bbb    -0.0075    -3.994    -1.425    -1.332 -0.6527  0.1479  0.7430
              Bcc     0.0166     8.867     3.164     2.958  0.1598  0.9856 -0.0558
 
              Baa    -0.0614   -32.739   -11.682   -10.920  0.9871  0.1593  0.0181
    11 H(1)   Bbb    -0.0022    -1.200    -0.428    -0.400  0.0012 -0.1200  0.9928
              Bcc     0.0636    33.938    12.110    11.321 -0.1604  0.9799  0.1187
 
              Baa    -0.0091    -4.831    -1.724    -1.611  0.0414  0.9848 -0.1686
    12 H(1)   Bbb    -0.0069    -3.690    -1.317    -1.231  0.0055  0.1685  0.9857
              Bcc     0.0160     8.521     3.040     2.842  0.9991 -0.0418  0.0015
 
              Baa    -0.0075    -4.009    -1.430    -1.337  0.4865  0.8721  0.0528
    13 H(1)   Bbb    -0.0053    -2.850    -1.017    -0.951 -0.4134  0.1766  0.8933
              Bcc     0.0129     6.859     2.447     2.288  0.7697 -0.4564  0.4464
 
              Baa    -0.0079    -4.198    -1.498    -1.400  0.6234  0.5077  0.5947
    14 H(1)   Bbb    -0.0070    -3.757    -1.341    -1.253 -0.3925 -0.4546  0.7996
              Bcc     0.0149     7.955     2.839     2.654 -0.6763  0.7319  0.0841
 

 ---------------------------------------------------------------------------------


 Test job not archived.
 1\1\GINC-KADET27\SP\UB3LYP\6-311G(d,p)\C4H8N1O1(2)\MDOROHUN\15-Apr-202
 6\0\\# UB3LYP/6-311G(d,p) GFInput Pop=Full IOP(6/80=1)\\ch3ch_nhco_ch3
 _rad rodnik\\0,2\C,0,4.560182,-2.99262,4.857959\C,0,3.344178,-3.855283
 ,4.56616\N,0,2.252891,-3.640525,5.389958\C,0,1.037826,-4.288839,5.2527
 61\C,0,-0.002434,-4.143176,6.306924\O,0,3.319625,-4.682618,3.663461\H,
 0,4.445864,-2.345214,5.733952\H,0,5.427981,-3.64209,5.009806\H,0,4.773
 646,-2.366417,3.984978\H,0,2.333804,-2.932263,6.10822\H,0,1.020692,-5.
 061416,4.497061\H,0,-0.972824,-4.485245,5.933812\H,0,0.217003,-4.72842
 6,7.218225\H,0,-0.124224,-3.09698,6.625384\\Version=ES64L-G09RevD.01\S
 tate=2-A\HF=-287.2700992\S2=0.755272\S2-1=0.\S2A=0.750019\RMSD=5.861e-
 09\Dipole=-0.2174492,0.8981856,1.2013224\Quadrupole=2.1770145,-0.04516
 13,-2.1318532,2.3658594,0.7644157,-0.8763125\PG=C01 [X(C4H8N1O1)]\\@


 You can't act like a skunk without someone's getting wind of it.
 -- Lorene Workman
 Job cpu time:       0 days  0 hours  0 minutes 20.4 seconds.
 File lengths (MBytes):  RWF=     25 Int=      0 D2E=      0 Chk=      2 Scr=      1
 Normal termination of Gaussian 09 at Wed Apr 15 13:20:28 2026.
