 Entering Gaussian System, Link 0=/opt/g09/g09/g09
 Input=gly_3_rad.inp
 Output=gly_3_rad.log
 Initial command:
 /opt/g09/g09/l1.exe "/tmp/Gau-5646.inp" -scrdir="/tmp/"
 Entering Link 1 = /opt/g09/g09/l1.exe PID=      5648.
  
 Copyright (c) 1988,1990,1992,1993,1995,1998,2003,2009,2013,
            Gaussian, Inc.  All Rights Reserved.
  
 This is part of the Gaussian(R) 09 program.  It is based on
 the Gaussian(R) 03 system (copyright 2003, Gaussian, Inc.),
 the Gaussian(R) 98 system (copyright 1998, Gaussian, Inc.),
 the Gaussian(R) 94 system (copyright 1995, Gaussian, Inc.),
 the Gaussian 92(TM) system (copyright 1992, Gaussian, Inc.),
 the Gaussian 90(TM) system (copyright 1990, Gaussian, Inc.),
 the Gaussian 88(TM) system (copyright 1988, Gaussian, Inc.),
 the Gaussian 86(TM) system (copyright 1986, Carnegie Mellon
 University), and the Gaussian 82(TM) system (copyright 1983,
 Carnegie Mellon University). Gaussian is a federally registered
 trademark of Gaussian, Inc.
  
 This software contains proprietary and confidential information,
 including trade secrets, belonging to Gaussian, Inc.
  
 This software is provided under written license and may be
 used, copied, transmitted, or stored only in accord with that
 written license.
  
 The following legend is applicable only to US Government
 contracts under FAR:
  
                    RESTRICTED RIGHTS LEGEND
  
 Use, reproduction and disclosure by the US Government is
 subject to restrictions as set forth in subparagraphs (a)
 and (c) of the Commercial Computer Software - Restricted
 Rights clause in FAR 52.227-19.
  
 Gaussian, Inc.
 340 Quinnipiac St., Bldg. 40, Wallingford CT 06492
  
  
 ---------------------------------------------------------------
 Warning -- This program may not be used in any manner that
 competes with the business of Gaussian, Inc. or will provide
 assistance to any competitor of Gaussian, Inc.  The licensee
 of this program is prohibited from giving any competitor of
 Gaussian, Inc. access to this program.  By using this program,
 the user acknowledges that Gaussian, Inc. is engaged in the
 business of creating and licensing software in the field of
 computational chemistry and represents and warrants to the
 licensee that it is not a competitor of Gaussian, Inc. and that
 it will not use this program in any manner prohibited above.
 ---------------------------------------------------------------
  

 Cite this work as:
 Gaussian 09, Revision D.01,
 M. J. Frisch, G. W. Trucks, H. B. Schlegel, G. E. Scuseria, 
 M. A. Robb, J. R. Cheeseman, G. Scalmani, V. Barone, B. Mennucci, 
 G. A. Petersson, H. Nakatsuji, M. Caricato, X. Li, H. P. Hratchian, 
 A. F. Izmaylov, J. Bloino, G. Zheng, J. L. Sonnenberg, M. Hada, 
 M. Ehara, K. Toyota, R. Fukuda, J. Hasegawa, M. Ishida, T. Nakajima, 
 Y. Honda, O. Kitao, H. Nakai, T. Vreven, J. A. Montgomery, Jr., 
 J. E. Peralta, F. Ogliaro, M. Bearpark, J. J. Heyd, E. Brothers, 
 K. N. Kudin, V. N. Staroverov, T. Keith, R. Kobayashi, J. Normand, 
 K. Raghavachari, A. Rendell, J. C. Burant, S. S. Iyengar, J. Tomasi, 
 M. Cossi, N. Rega, J. M. Millam, M. Klene, J. E. Knox, J. B. Cross, 
 V. Bakken, C. Adamo, J. Jaramillo, R. Gomperts, R. E. Stratmann, 
 O. Yazyev, A. J. Austin, R. Cammi, C. Pomelli, J. W. Ochterski, 
 R. L. Martin, K. Morokuma, V. G. Zakrzewski, G. A. Voth, 
 P. Salvador, J. J. Dannenberg, S. Dapprich, A. D. Daniels, 
 O. Farkas, J. B. Foresman, J. V. Ortiz, J. Cioslowski, 
 and D. J. Fox, Gaussian, Inc., Wallingford CT, 2013.
 
 ******************************************
 Gaussian 09:  ES64L-G09RevD.01 24-Apr-2013
                15-Apr-2026 
 ******************************************
 -------------------------------------------------
 # UB3LYP/6-311G(d,p) GFInput Pop=Full IOP(6/80=1)
 -------------------------------------------------
 1/38=1/1;
 2/12=2,17=6,18=5,40=1/2;
 3/5=4,6=6,7=101,11=2,16=1,24=10,25=1,30=1,74=-5,116=2/1,2,3;
 4//1;
 5/5=2,38=5/2;
 6/7=3,28=1,80=1/1;
 99/5=1,9=1/99;
 ------------
 gly_3 rodnik
 ------------
 Symbolic Z-matrix:
 Charge =  0 Multiplicity = 2
 C                     4.47783  -2.77029   4.91882 
 C                     3.25386  -3.49444   4.39254 
 O                     2.63628  -3.13454   3.40088 
 N                     2.86972  -4.61176   5.11901 
 C                     1.79923  -5.4022    4.8171 
 C                     1.57382  -6.52536   5.71041 
 O                     2.32456  -6.72716   6.67875 
 N                     0.49895  -7.32427   5.41421 
 C                     0.14759  -8.48585   6.20657 
 H                     4.90694  -3.22956   5.81425 
 H                     5.2396   -2.74272   4.13309 
 H                     4.20753  -1.73389   5.14527 
 H                     3.3822   -4.91369   5.94485 
 H                     1.2108   -5.13576   3.94983 
 H                     0.18945  -9.405     5.60896 
 H                    -0.06119  -7.09817   4.60492 
 H                    -0.85879  -8.38913   6.63252 
 H                     0.87245  -8.5561    7.01858 
 
                          Input orientation:                          
 ---------------------------------------------------------------------
 Center     Atomic      Atomic             Coordinates (Angstroms)
 Number     Number       Type             X           Y           Z
 ---------------------------------------------------------------------
      1          6           0        4.477830   -2.770290    4.918818
      2          6           0        3.253861   -3.494438    4.392541
      3          8           0        2.636285   -3.134540    3.400879
      4          7           0        2.869717   -4.611760    5.119006
      5          6           0        1.799228   -5.402201    4.817102
      6          6           0        1.573820   -6.525357    5.710405
      7          8           0        2.324560   -6.727161    6.678750
      8          7           0        0.498950   -7.324274    5.414207
      9          6           0        0.147590   -8.485846    6.206565
     10          1           0        4.906937   -3.229563    5.814245
     11          1           0        5.239595   -2.742719    4.133085
     12          1           0        4.207528   -1.733888    5.145273
     13          1           0        3.382202   -4.913689    5.944848
     14          1           0        1.210801   -5.135759    3.949833
     15          1           0        0.189450   -9.404997    5.608964
     16          1           0       -0.061191   -7.098168    4.604923
     17          1           0       -0.858792   -8.389133    6.632521
     18          1           0        0.872449   -8.556098    7.018583
 ---------------------------------------------------------------------
                    Distance matrix (angstroms):
                    1          2          3          4          5
     1  C    0.000000
     2  C    1.516396   0.000000
     3  O    2.414147   1.222424   0.000000
     4  N    2.452981   1.386985   2.277856   0.000000
     5  C    3.756622   2.436343   2.801542   1.364511   0.000000
     6  C    4.812527   3.707529   4.237969   2.385572   1.452680
     7  O    4.836400   4.067044   4.873247   2.684198   2.344616
     8  N    6.067591   4.827109   5.116206   3.614611   2.396168
     9  C    7.285386   6.152541   6.534673   4.858117   3.763958
    10  H    1.094008   2.196375   3.315000   2.558142   3.920779
    11  H    1.094725   2.139051   2.732558   3.175166   4.401914
    12  H    1.094748   2.139070   2.733778   3.173732   4.400469
    13  H    2.616734   2.107226   3.192733   1.017751   2.004061
    14  H    4.148235   2.657822   2.517585   2.096078   1.081385
    15  H    7.930059   6.767940   7.083874   5.513530   4.386434
    16  H    6.279472   4.901178   4.943323   3.877722   2.526358
    17  H    7.936480   6.774176   7.090121   5.519153   4.391193
    18  H    7.133257   6.179613   6.752199   4.811993   3.956325
                    6          7          8          9         10
     6  C    0.000000
     7  O    1.241784   0.000000
     8  N    1.371622   2.299666   0.000000
     9  C    2.474636   2.838156   1.449322   0.000000
    10  H    4.688572   4.432745   6.029680   7.101677   0.000000
    11  H    5.498563   5.554603   6.716073   7.950556   1.781566
    12  H    5.496723   5.552468   6.714037   7.949741   1.781499
    13  H    2.433656   2.223938   3.795477   4.826128   2.275556
    14  H    2.272087   3.349628   2.727768   4.176882   4.557525
    15  H    3.196732   3.588028   2.112612   1.097141   7.773854
    16  H    2.055107   3.182799   1.009863   2.129436   6.411775
    17  H    3.200244   3.591381   2.112268   1.097086   7.780384
    18  H    2.515385   2.359899   2.056919   1.090747   6.789661
                   11         12         13         14         15
    11  H    0.000000
    12  H    1.762790   0.000000
    13  H    3.383121   3.381068   0.000000
    14  H    4.689499   4.688515   2.957090   0.000000
    15  H    8.489295   8.672132   5.520718   4.692789   0.000000
    16  H    6.876838   6.876732   4.292354   2.428612   2.528316
    17  H    8.678681   8.495398   5.526087   4.697284   1.782824
    18  H    7.822623   7.821419   4.551803   4.607649   1.781612
                   16         17         18
    16  H    0.000000
    17  H    2.532570   0.000000
    18  H    2.970353   1.781605   0.000000
 Stoichiometry    C5H9N2O2(2)
 Framework group  C1[X(C5H9N2O2)]
 Deg. of freedom    48
 Full point group                 C1      NOp   1
 Largest Abelian subgroup         C1      NOp   1
 Largest concise Abelian subgroup C1      NOp   1
                         Standard orientation:                         
 ---------------------------------------------------------------------
 Center     Atomic      Atomic             Coordinates (Angstroms)
 Number     Number       Type             X           Y           Z
 ---------------------------------------------------------------------
      1          6           0        3.413977    0.864399    0.000760
      2          6           0        2.342711   -0.208843    0.000506
      3          8           0        2.592129   -1.405551    0.000706
      4          7           0        1.036933    0.258779   -0.000299
      5          6           0       -0.071414   -0.537120   -0.001223
      6          6           0       -1.346544    0.158813   -0.001308
      7          8           0       -1.392703    1.399739   -0.000773
      8          7           0       -2.465610   -0.634304   -0.003209
      9          6           0       -3.808674   -0.089623    0.002796
     10          1           0        3.013670    1.882537    0.002275
     11          1           0        4.050469    0.730927    0.881376
     12          1           0        4.048793    0.733033   -0.881412
     13          1           0        0.826489    1.254535   -0.000267
     14          1           0        0.082656   -1.607473   -0.001657
     15          1           0       -4.362855   -0.402155    0.896622
     16          1           0       -2.345772   -1.637013    0.002821
     17          1           0       -4.370397   -0.402316   -0.886185
     18          1           0       -3.718041    0.997351    0.002341
 ---------------------------------------------------------------------
 Rotational constants (GHZ):      5.1314570      0.6787133      0.6039683
 Standard basis: 6-311G(d,p) (5D, 7F)
 AO basis set in the form of general basis input (Overlap normalization):
      1 0
 S   6 1.00       0.000000000000
      0.4563240000D+04  0.1966650249D-02
      0.6820240000D+03  0.1523060193D-01
      0.1549730000D+03  0.7612690966D-01
      0.4445530000D+02  0.2608010331D+00
      0.1302900000D+02  0.6164620782D+00
      0.1827730000D+01  0.2210060280D+00
 SP   3 1.00       0.000000000000
      0.2096420000D+02  0.1146600807D+00  0.4024869267D-01
      0.4803310000D+01  0.9199996477D+00  0.2375939567D+00
      0.1459330000D+01 -0.3030682134D-02  0.8158538515D+00
 SP   1 1.00       0.000000000000
      0.4834560000D+00  0.1000000000D+01  0.1000000000D+01
 SP   1 1.00       0.000000000000
      0.1455850000D+00  0.1000000000D+01  0.1000000000D+01
 D   1 1.00       0.000000000000
      0.6260000000D+00  0.1000000000D+01
 ****
      2 0
 S   6 1.00       0.000000000000
      0.4563240000D+04  0.1966650249D-02
      0.6820240000D+03  0.1523060193D-01
      0.1549730000D+03  0.7612690966D-01
      0.4445530000D+02  0.2608010331D+00
      0.1302900000D+02  0.6164620782D+00
      0.1827730000D+01  0.2210060280D+00
 SP   3 1.00       0.000000000000
      0.2096420000D+02  0.1146600807D+00  0.4024869267D-01
      0.4803310000D+01  0.9199996477D+00  0.2375939567D+00
      0.1459330000D+01 -0.3030682134D-02  0.8158538515D+00
 SP   1 1.00       0.000000000000
      0.4834560000D+00  0.1000000000D+01  0.1000000000D+01
 SP   1 1.00       0.000000000000
      0.1455850000D+00  0.1000000000D+01  0.1000000000D+01
 D   1 1.00       0.000000000000
      0.6260000000D+00  0.1000000000D+01
 ****
      3 0
 S   6 1.00       0.000000000000
      0.8588500000D+04  0.1895150083D-02
      0.1297230000D+04  0.1438590063D-01
      0.2992960000D+03  0.7073200310D-01
      0.8737710000D+02  0.2400010105D+00
      0.2567890000D+02  0.5947970261D+00
      0.3740040000D+01  0.2808020123D+00
 SP   3 1.00       0.000000000000
      0.4211750000D+02  0.1138890124D+00  0.3651139738D-01
      0.9628370000D+01  0.9208111006D+00  0.2371529830D+00
      0.2853320000D+01 -0.3274470358D-02  0.8197019412D+00
 SP   1 1.00       0.000000000000
      0.9056610000D+00  0.1000000000D+01  0.1000000000D+01
 SP   1 1.00       0.000000000000
      0.2556110000D+00  0.1000000000D+01  0.1000000000D+01
 D   1 1.00       0.000000000000
      0.1292000000D+01  0.1000000000D+01
 ****
      4 0
 S   6 1.00       0.000000000000
      0.6293480000D+04  0.1969788147D-02
      0.9490440000D+03  0.1496128592D-01
      0.2187760000D+03  0.7350053084D-01
      0.6369160000D+02  0.2489367658D+00
      0.1882820000D+02  0.6024594331D+00
      0.2720230000D+01  0.2562017589D+00
 SP   3 1.00       0.000000000000
      0.3063310000D+02  0.1119060795D+00  0.3831191864D-01
      0.7026140000D+01  0.9216666549D+00  0.2374031155D+00
      0.2112050000D+01 -0.2569191826D-02  0.8175923978D+00
 SP   1 1.00       0.000000000000
      0.6840090000D+00  0.1000000000D+01  0.1000000000D+01
 SP   1 1.00       0.000000000000
      0.2008780000D+00  0.1000000000D+01  0.1000000000D+01
 D   1 1.00       0.000000000000
      0.9130000000D+00  0.1000000000D+01
 ****
      5 0
 S   6 1.00       0.000000000000
      0.4563240000D+04  0.1966650249D-02
      0.6820240000D+03  0.1523060193D-01
      0.1549730000D+03  0.7612690966D-01
      0.4445530000D+02  0.2608010331D+00
      0.1302900000D+02  0.6164620782D+00
      0.1827730000D+01  0.2210060280D+00
 SP   3 1.00       0.000000000000
      0.2096420000D+02  0.1146600807D+00  0.4024869267D-01
      0.4803310000D+01  0.9199996477D+00  0.2375939567D+00
      0.1459330000D+01 -0.3030682134D-02  0.8158538515D+00
 SP   1 1.00       0.000000000000
      0.4834560000D+00  0.1000000000D+01  0.1000000000D+01
 SP   1 1.00       0.000000000000
      0.1455850000D+00  0.1000000000D+01  0.1000000000D+01
 D   1 1.00       0.000000000000
      0.6260000000D+00  0.1000000000D+01
 ****
      6 0
 S   6 1.00       0.000000000000
      0.4563240000D+04  0.1966650249D-02
      0.6820240000D+03  0.1523060193D-01
      0.1549730000D+03  0.7612690966D-01
      0.4445530000D+02  0.2608010331D+00
      0.1302900000D+02  0.6164620782D+00
      0.1827730000D+01  0.2210060280D+00
 SP   3 1.00       0.000000000000
      0.2096420000D+02  0.1146600807D+00  0.4024869267D-01
      0.4803310000D+01  0.9199996477D+00  0.2375939567D+00
      0.1459330000D+01 -0.3030682134D-02  0.8158538515D+00
 SP   1 1.00       0.000000000000
      0.4834560000D+00  0.1000000000D+01  0.1000000000D+01
 SP   1 1.00       0.000000000000
      0.1455850000D+00  0.1000000000D+01  0.1000000000D+01
 D   1 1.00       0.000000000000
      0.6260000000D+00  0.1000000000D+01
 ****
      7 0
 S   6 1.00       0.000000000000
      0.8588500000D+04  0.1895150083D-02
      0.1297230000D+04  0.1438590063D-01
      0.2992960000D+03  0.7073200310D-01
      0.8737710000D+02  0.2400010105D+00
      0.2567890000D+02  0.5947970261D+00
      0.3740040000D+01  0.2808020123D+00
 SP   3 1.00       0.000000000000
      0.4211750000D+02  0.1138890124D+00  0.3651139738D-01
      0.9628370000D+01  0.9208111006D+00  0.2371529830D+00
      0.2853320000D+01 -0.3274470358D-02  0.8197019412D+00
 SP   1 1.00       0.000000000000
      0.9056610000D+00  0.1000000000D+01  0.1000000000D+01
 SP   1 1.00       0.000000000000
      0.2556110000D+00  0.1000000000D+01  0.1000000000D+01
 D   1 1.00       0.000000000000
      0.1292000000D+01  0.1000000000D+01
 ****
      8 0
 S   6 1.00       0.000000000000
      0.6293480000D+04  0.1969788147D-02
      0.9490440000D+03  0.1496128592D-01
      0.2187760000D+03  0.7350053084D-01
      0.6369160000D+02  0.2489367658D+00
      0.1882820000D+02  0.6024594331D+00
      0.2720230000D+01  0.2562017589D+00
 SP   3 1.00       0.000000000000
      0.3063310000D+02  0.1119060795D+00  0.3831191864D-01
      0.7026140000D+01  0.9216666549D+00  0.2374031155D+00
      0.2112050000D+01 -0.2569191826D-02  0.8175923978D+00
 SP   1 1.00       0.000000000000
      0.6840090000D+00  0.1000000000D+01  0.1000000000D+01
 SP   1 1.00       0.000000000000
      0.2008780000D+00  0.1000000000D+01  0.1000000000D+01
 D   1 1.00       0.000000000000
      0.9130000000D+00  0.1000000000D+01
 ****
      9 0
 S   6 1.00       0.000000000000
      0.4563240000D+04  0.1966650249D-02
      0.6820240000D+03  0.1523060193D-01
      0.1549730000D+03  0.7612690966D-01
      0.4445530000D+02  0.2608010331D+00
      0.1302900000D+02  0.6164620782D+00
      0.1827730000D+01  0.2210060280D+00
 SP   3 1.00       0.000000000000
      0.2096420000D+02  0.1146600807D+00  0.4024869267D-01
      0.4803310000D+01  0.9199996477D+00  0.2375939567D+00
      0.1459330000D+01 -0.3030682134D-02  0.8158538515D+00
 SP   1 1.00       0.000000000000
      0.4834560000D+00  0.1000000000D+01  0.1000000000D+01
 SP   1 1.00       0.000000000000
      0.1455850000D+00  0.1000000000D+01  0.1000000000D+01
 D   1 1.00       0.000000000000
      0.6260000000D+00  0.1000000000D+01
 ****
     10 0
 S   3 1.00       0.000000000000
      0.3386500000D+02  0.2549381454D-01
      0.5094790000D+01  0.1903731086D+00
      0.1158790000D+01  0.8521614860D+00
 S   1 1.00       0.000000000000
      0.3258400000D+00  0.1000000000D+01
 S   1 1.00       0.000000000000
      0.1027410000D+00  0.1000000000D+01
 P   1 1.00       0.000000000000
      0.7500000000D+00  0.1000000000D+01
 ****
     11 0
 S   3 1.00       0.000000000000
      0.3386500000D+02  0.2549381454D-01
      0.5094790000D+01  0.1903731086D+00
      0.1158790000D+01  0.8521614860D+00
 S   1 1.00       0.000000000000
      0.3258400000D+00  0.1000000000D+01
 S   1 1.00       0.000000000000
      0.1027410000D+00  0.1000000000D+01
 P   1 1.00       0.000000000000
      0.7500000000D+00  0.1000000000D+01
 ****
     12 0
 S   3 1.00       0.000000000000
      0.3386500000D+02  0.2549381454D-01
      0.5094790000D+01  0.1903731086D+00
      0.1158790000D+01  0.8521614860D+00
 S   1 1.00       0.000000000000
      0.3258400000D+00  0.1000000000D+01
 S   1 1.00       0.000000000000
      0.1027410000D+00  0.1000000000D+01
 P   1 1.00       0.000000000000
      0.7500000000D+00  0.1000000000D+01
 ****
     13 0
 S   3 1.00       0.000000000000
      0.3386500000D+02  0.2549381454D-01
      0.5094790000D+01  0.1903731086D+00
      0.1158790000D+01  0.8521614860D+00
 S   1 1.00       0.000000000000
      0.3258400000D+00  0.1000000000D+01
 S   1 1.00       0.000000000000
      0.1027410000D+00  0.1000000000D+01
 P   1 1.00       0.000000000000
      0.7500000000D+00  0.1000000000D+01
 ****
     14 0
 S   3 1.00       0.000000000000
      0.3386500000D+02  0.2549381454D-01
      0.5094790000D+01  0.1903731086D+00
      0.1158790000D+01  0.8521614860D+00
 S   1 1.00       0.000000000000
      0.3258400000D+00  0.1000000000D+01
 S   1 1.00       0.000000000000
      0.1027410000D+00  0.1000000000D+01
 P   1 1.00       0.000000000000
      0.7500000000D+00  0.1000000000D+01
 ****
     15 0
 S   3 1.00       0.000000000000
      0.3386500000D+02  0.2549381454D-01
      0.5094790000D+01  0.1903731086D+00
      0.1158790000D+01  0.8521614860D+00
 S   1 1.00       0.000000000000
      0.3258400000D+00  0.1000000000D+01
 S   1 1.00       0.000000000000
      0.1027410000D+00  0.1000000000D+01
 P   1 1.00       0.000000000000
      0.7500000000D+00  0.1000000000D+01
 ****
     16 0
 S   3 1.00       0.000000000000
      0.3386500000D+02  0.2549381454D-01
      0.5094790000D+01  0.1903731086D+00
      0.1158790000D+01  0.8521614860D+00
 S   1 1.00       0.000000000000
      0.3258400000D+00  0.1000000000D+01
 S   1 1.00       0.000000000000
      0.1027410000D+00  0.1000000000D+01
 P   1 1.00       0.000000000000
      0.7500000000D+00  0.1000000000D+01
 ****
     17 0
 S   3 1.00       0.000000000000
      0.3386500000D+02  0.2549381454D-01
      0.5094790000D+01  0.1903731086D+00
      0.1158790000D+01  0.8521614860D+00
 S   1 1.00       0.000000000000
      0.3258400000D+00  0.1000000000D+01
 S   1 1.00       0.000000000000
      0.1027410000D+00  0.1000000000D+01
 P   1 1.00       0.000000000000
      0.7500000000D+00  0.1000000000D+01
 ****
     18 0
 S   3 1.00       0.000000000000
      0.3386500000D+02  0.2549381454D-01
      0.5094790000D+01  0.1903731086D+00
      0.1158790000D+01  0.8521614860D+00
 S   1 1.00       0.000000000000
      0.3258400000D+00  0.1000000000D+01
 S   1 1.00       0.000000000000
      0.1027410000D+00  0.1000000000D+01
 P   1 1.00       0.000000000000
      0.7500000000D+00  0.1000000000D+01
 ****

 There are   225 symmetry adapted cartesian basis functions of A   symmetry.
 There are   216 symmetry adapted basis functions of A   symmetry.
   216 basis functions,   360 primitive gaussians,   225 cartesian basis functions
    35 alpha electrons       34 beta electrons
       nuclear repulsion energy       435.1668115684 Hartrees.
 NAtoms=   18 NActive=   18 NUniq=   18 SFac= 1.00D+00 NAtFMM=   60 NAOKFM=F Big=F
 Integral buffers will be    131072 words long.
 Raffenetti 2 integral format.
 Two-electron integral symmetry is turned on.
 One-electron integrals computed using PRISM.
 NBasis=   216 RedAO= T EigKep=  1.00D-03  NBF=   216
 NBsUse=   216 1.00D-06 EigRej= -1.00D+00 NBFU=   216
 ExpMin= 1.03D-01 ExpMax= 8.59D+03 ExpMxC= 1.30D+03 IAcc=1 IRadAn=         1 AccDes= 0.00D+00
 Harris functional with IExCor=  402 and IRadAn=       1 diagonalized for initial guess.
 HarFok:  IExCor=  402 AccDes= 0.00D+00 IRadAn=         1 IDoV= 1 UseB2=F ITyADJ=14
 ICtDFT=  3500011 ScaDFX=  1.000000  1.000000  1.000000  1.000000
 FoFCou: FMM=F IPFlag=           0 FMFlag=      100000 FMFlg1=           0
         NFxFlg=           0 DoJE=T BraDBF=F KetDBF=T FulRan=T
         wScrn=  0.000000 ICntrl=     500 IOpCl=  0 I1Cent=   200000004 NGrid=           0
         NMat0=    1 NMatS0=      1 NMatT0=    0 NMatD0=    1 NMtDS0=    0 NMtDT0=    0
 Petite list used in FoFCou.
 Initial guess <Sx>= 0.0000 <Sy>= 0.0000 <Sz>= 0.5000 <S**2>= 0.7500 S= 0.5000
 Requested convergence on RMS density matrix=1.00D-08 within 128 cycles.
 Requested convergence on MAX density matrix=1.00D-06.
 Requested convergence on             energy=1.00D-06.
 No special actions if energy rises.
 Integral accuracy reduced to 1.0D-05 until final iterations.
 Initial convergence to 1.0D-05 achieved.  Increase integral accuracy.
 SCF Done:  E(UB3LYP) =  -456.030615189     A.U. after   17 cycles
            NFock= 17  Conv=0.62D-08     -V/T= 2.0037
 <Sx>= 0.0000 <Sy>= 0.0000 <Sz>= 0.5000 <S**2>= 0.7545 S= 0.5023
 <L.S>= 0.000000000000E+00
 Annihilation of the first spin contaminant:
 S**2 before annihilation     0.7545,   after     0.7500

 **********************************************************************

            Population analysis using the SCF density.

 **********************************************************************

 Orbital symmetries:
 Alpha Orbitals:
       Occupied  (A) (A) (A) (A) (A) (A) (A) (A) (A) (A) (A) (A)
                 (A) (A) (A) (A) (A) (A) (A) (A) (A) (A) (A) (A)
                 (A) (A) (A) (A) (A) (A) (A) (A) (A) (A) (A)
       Virtual   (A) (A) (A) (A) (A) (A) (A) (A) (A) (A) (A) (A)
                 (A) (A) (A) (A) (A) (A) (A) (A) (A) (A) (A) (A)
                 (A) (A) (A) (A) (A) (A) (A) (A) (A) (A) (A) (A)
                 (A) (A) (A) (A) (A) (A) (A) (A) (A) (A) (A) (A)
                 (A) (A) (A) (A) (A) (A) (A) (A) (A) (A) (A) (A)
                 (A) (A) (A) (A) (A) (A) (A) (A) (A) (A) (A) (A)
                 (A) (A) (A) (A) (A) (A) (A) (A) (A) (A) (A) (A)
                 (A) (A) (A) (A) (A) (A) (A) (A) (A) (A) (A) (A)
                 (A) (A) (A) (A) (A) (A) (A) (A) (A) (A) (A) (A)
                 (A) (A) (A) (A) (A) (A) (A) (A) (A) (A) (A) (A)
                 (A) (A) (A) (A) (A) (A) (A) (A) (A) (A) (A) (A)
                 (A) (A) (A) (A) (A) (A) (A) (A) (A) (A) (A) (A)
                 (A) (A) (A) (A) (A) (A) (A) (A) (A) (A) (A) (A)
                 (A) (A) (A) (A) (A) (A) (A) (A) (A) (A) (A) (A)
                 (A) (A) (A) (A) (A) (A) (A) (A) (A) (A) (A) (A)
                 (A)
 Beta  Orbitals:
       Occupied  (A) (A) (A) (A) (A) (A) (A) (A) (A) (A) (A) (A)
                 (A) (A) (A) (A) (A) (A) (A) (A) (A) (A) (A) (A)
                 (A) (A) (A) (A) (A) (A) (A) (A) (A) (A)
       Virtual   (A) (A) (A) (A) (A) (A) (A) (A) (A) (A) (A) (A)
                 (A) (A) (A) (A) (A) (A) (A) (A) (A) (A) (A) (A)
                 (A) (A) (A) (A) (A) (A) (A) (A) (A) (A) (A) (A)
                 (A) (A) (A) (A) (A) (A) (A) (A) (A) (A) (A) (A)
                 (A) (A) (A) (A) (A) (A) (A) (A) (A) (A) (A) (A)
                 (A) (A) (A) (A) (A) (A) (A) (A) (A) (A) (A) (A)
                 (A) (A) (A) (A) (A) (A) (A) (A) (A) (A) (A) (A)
                 (A) (A) (A) (A) (A) (A) (A) (A) (A) (A) (A) (A)
                 (A) (A) (A) (A) (A) (A) (A) (A) (A) (A) (A) (A)
                 (A) (A) (A) (A) (A) (A) (A) (A) (A) (A) (A) (A)
                 (A) (A) (A) (A) (A) (A) (A) (A) (A) (A) (A) (A)
                 (A) (A) (A) (A) (A) (A) (A) (A) (A) (A) (A) (A)
                 (A) (A) (A) (A) (A) (A) (A) (A) (A) (A) (A) (A)
                 (A) (A) (A) (A) (A) (A) (A) (A) (A) (A) (A) (A)
                 (A) (A) (A) (A) (A) (A) (A) (A) (A) (A) (A) (A)
                 (A) (A)
 The electronic state is 2-A.
 Alpha  occ. eigenvalues --  -19.09715 -19.08273 -14.37023 -14.34300 -10.28564
 Alpha  occ. eigenvalues --  -10.27413 -10.22402 -10.20565 -10.18622  -1.05493
 Alpha  occ. eigenvalues --   -1.03626  -0.95377  -0.92771  -0.77691  -0.73681
 Alpha  occ. eigenvalues --   -0.68621  -0.61175  -0.59516  -0.55548  -0.49526
 Alpha  occ. eigenvalues --   -0.47752  -0.47176  -0.46371  -0.45768  -0.42169
 Alpha  occ. eigenvalues --   -0.41620  -0.41505  -0.40795  -0.39498  -0.38307
 Alpha  occ. eigenvalues --   -0.32877  -0.27706  -0.26860  -0.26623  -0.19097
 Alpha virt. eigenvalues --    0.00447   0.03123   0.03800   0.06194   0.06606
 Alpha virt. eigenvalues --    0.07874   0.10736   0.10860   0.11800   0.12269
 Alpha virt. eigenvalues --    0.13593   0.16655   0.18951   0.22452   0.25047
 Alpha virt. eigenvalues --    0.27429   0.27947   0.28517   0.29351   0.29802
 Alpha virt. eigenvalues --    0.30757   0.31823   0.37258   0.37314   0.38656
 Alpha virt. eigenvalues --    0.39665   0.42132   0.43235   0.45009   0.49082
 Alpha virt. eigenvalues --    0.51037   0.52183   0.52284   0.55296   0.55319
 Alpha virt. eigenvalues --    0.56299   0.58052   0.58521   0.58639   0.61093
 Alpha virt. eigenvalues --    0.61984   0.62109   0.62553   0.64585   0.65243
 Alpha virt. eigenvalues --    0.69995   0.70932   0.72488   0.73349   0.76038
 Alpha virt. eigenvalues --    0.82216   0.86978   0.88135   0.90316   0.90928
 Alpha virt. eigenvalues --    0.95046   0.97603   0.99249   0.99753   1.02411
 Alpha virt. eigenvalues --    1.05267   1.05464   1.11820   1.13735   1.16154
 Alpha virt. eigenvalues --    1.20656   1.24139   1.26744   1.27766   1.30646
 Alpha virt. eigenvalues --    1.39067   1.43201   1.43516   1.43795   1.44451
 Alpha virt. eigenvalues --    1.45884   1.47658   1.49362   1.49580   1.50468
 Alpha virt. eigenvalues --    1.51279   1.55479   1.57584   1.58351   1.60276
 Alpha virt. eigenvalues --    1.61275   1.65513   1.66441   1.69905   1.70079
 Alpha virt. eigenvalues --    1.73263   1.73952   1.79521   1.79556   1.84475
 Alpha virt. eigenvalues --    1.86472   1.87662   1.88817   1.92008   1.96008
 Alpha virt. eigenvalues --    1.99960   2.02679   2.05041   2.08350   2.11382
 Alpha virt. eigenvalues --    2.16923   2.20512   2.26331   2.30692   2.31283
 Alpha virt. eigenvalues --    2.32877   2.33172   2.34800   2.36039   2.37667
 Alpha virt. eigenvalues --    2.39885   2.41365   2.44544   2.46193   2.46779
 Alpha virt. eigenvalues --    2.47113   2.48207   2.50803   2.53122   2.55280
 Alpha virt. eigenvalues --    2.62615   2.63335   2.64563   2.73710   2.76813
 Alpha virt. eigenvalues --    2.79798   2.81519   2.82941   2.84485   2.86180
 Alpha virt. eigenvalues --    2.89803   2.90607   2.94138   2.94335   2.96539
 Alpha virt. eigenvalues --    3.04557   3.13754   3.17867   3.23396   3.31089
 Alpha virt. eigenvalues --    3.31961   3.33126   3.38141   3.52541   3.57325
 Alpha virt. eigenvalues --    3.58482   3.63641   3.67198   3.73243   3.74569
 Alpha virt. eigenvalues --    3.76506   3.77435   3.79562   3.84682   3.85671
 Alpha virt. eigenvalues --    4.05572   4.10392   4.79255   4.81812   4.89072
 Alpha virt. eigenvalues --    4.90483   4.90796   5.01523   5.06957   5.16880
 Alpha virt. eigenvalues --    5.63335   5.67629  23.73377  23.77705  23.87290
 Alpha virt. eigenvalues --   23.89135  23.90193  35.54088  35.58391  49.97771
 Alpha virt. eigenvalues --   50.00217
  Beta  occ. eigenvalues --  -19.09466 -19.08018 -14.36789 -14.34126 -10.28513
  Beta  occ. eigenvalues --  -10.27470 -10.21436 -10.20576 -10.18632  -1.05004
  Beta  occ. eigenvalues --   -1.03203  -0.94602  -0.92386  -0.76906  -0.73313
  Beta  occ. eigenvalues --   -0.67818  -0.60742  -0.59219  -0.55195  -0.49267
  Beta  occ. eigenvalues --   -0.47270  -0.46146  -0.46133  -0.45356  -0.41927
  Beta  occ. eigenvalues --   -0.41370  -0.40569  -0.40183  -0.39386  -0.37477
  Beta  occ. eigenvalues --   -0.30758  -0.27386  -0.26302  -0.25481
  Beta virt. eigenvalues --   -0.09525   0.01779   0.03200   0.03852   0.06275
  Beta virt. eigenvalues --    0.07908   0.09009   0.10859   0.11118   0.11950
  Beta virt. eigenvalues --    0.12314   0.13690   0.17049   0.19147   0.22733
  Beta virt. eigenvalues --    0.25285   0.27712   0.28156   0.29439   0.29488
  Beta virt. eigenvalues --    0.29901   0.31047   0.31957   0.37425   0.39300
  Beta virt. eigenvalues --    0.39672   0.39918   0.42520   0.43521   0.45312
  Beta virt. eigenvalues --    0.49302   0.51242   0.52310   0.53232   0.55368
  Beta virt. eigenvalues --    0.55430   0.56345   0.58240   0.58959   0.59018
  Beta virt. eigenvalues --    0.61305   0.62314   0.62661   0.62765   0.64966
  Beta virt. eigenvalues --    0.65390   0.70671   0.71135   0.72658   0.73520
  Beta virt. eigenvalues --    0.76648   0.82440   0.87110   0.88809   0.90664
  Beta virt. eigenvalues --    0.91694   0.95162   0.98106   0.99708   0.99929
  Beta virt. eigenvalues --    1.02593   1.05469   1.06889   1.13762   1.13994
  Beta virt. eigenvalues --    1.16389   1.20819   1.24595   1.26859   1.28138
  Beta virt. eigenvalues --    1.30710   1.39289   1.43248   1.43632   1.43852
  Beta virt. eigenvalues --    1.44932   1.45989   1.47782   1.49508   1.49652
  Beta virt. eigenvalues --    1.50648   1.51956   1.55690   1.58310   1.59443
  Beta virt. eigenvalues --    1.60400   1.61750   1.65760   1.66580   1.70270
  Beta virt. eigenvalues --    1.70329   1.74069   1.74514   1.79612   1.79674
  Beta virt. eigenvalues --    1.84884   1.86812   1.88163   1.90426   1.92154
  Beta virt. eigenvalues --    1.96253   2.00012   2.02894   2.05292   2.08546
  Beta virt. eigenvalues --    2.11679   2.17181   2.20685   2.26554   2.31076
  Beta virt. eigenvalues --    2.31446   2.33297   2.34624   2.34904   2.36128
  Beta virt. eigenvalues --    2.38066   2.40154   2.41639   2.44708   2.46316
  Beta virt. eigenvalues --    2.47141   2.47197   2.48473   2.50945   2.53239
  Beta virt. eigenvalues --    2.55578   2.63586   2.64840   2.65135   2.74241
  Beta virt. eigenvalues --    2.77070   2.79934   2.81675   2.83162   2.86101
  Beta virt. eigenvalues --    2.86532   2.90392   2.91358   2.94818   2.95611
  Beta virt. eigenvalues --    2.96736   3.04643   3.14220   3.18211   3.23721
  Beta virt. eigenvalues --    3.31250   3.32621   3.33810   3.38394   3.52676
  Beta virt. eigenvalues --    3.57809   3.58740   3.63976   3.67623   3.73543
  Beta virt. eigenvalues --    3.75323   3.76758   3.77773   3.79674   3.84792
  Beta virt. eigenvalues --    3.86219   4.06364   4.10492   4.79637   4.82031
  Beta virt. eigenvalues --    4.90155   4.90832   4.91887   5.01819   5.07238
  Beta virt. eigenvalues --    5.17236   5.63573   5.67862  23.73827  23.77772
  Beta virt. eigenvalues --   23.87399  23.89486  23.90302  35.54307  35.58594
  Beta virt. eigenvalues --   49.98021  50.00471
     Alpha Molecular Orbital Coefficients:
                           1         2         3         4         5
                           O         O         O         O         O
     Eigenvalues --   -19.09715 -19.08273 -14.37023 -14.34300 -10.28564
   1 1   C  1S          0.00000   0.00000  -0.00001   0.00000   0.00065
   2        2S          0.00001   0.00001   0.00004   0.00000   0.00055
   3        2PX         0.00003  -0.00001  -0.00006   0.00001  -0.00046
   4        2PY        -0.00011  -0.00001  -0.00004   0.00001  -0.00040
   5        2PZ         0.00000   0.00000   0.00000   0.00000   0.00000
   6        3S         -0.00018  -0.00008  -0.00024  -0.00008   0.00005
   7        3PX        -0.00001   0.00006   0.00038   0.00000   0.00143
   8        3PY         0.00054   0.00003   0.00025  -0.00003   0.00120
   9        3PZ         0.00000   0.00000   0.00000   0.00000   0.00000
  10        4S          0.00509   0.00089   0.00214   0.00061   0.00677
  11        4PX        -0.00199  -0.00017   0.00024  -0.00002  -0.00237
  12        4PY         0.00025  -0.00045  -0.00146  -0.00020  -0.00150
  13        4PZ         0.00000   0.00000   0.00000   0.00000   0.00000
  14        5D 0        0.00007   0.00001   0.00004  -0.00001   0.00067
  15        5D+1        0.00000   0.00000   0.00000   0.00000   0.00000
  16        5D-1        0.00000   0.00000   0.00000   0.00000   0.00000
  17        5D+2        0.00025   0.00000  -0.00010   0.00000  -0.00001
  18        5D-2       -0.00031  -0.00001  -0.00022   0.00000  -0.00093
  19 2   C  1S         -0.00002   0.00000   0.00000   0.00000   0.56299
  20        2S          0.00006   0.00001   0.00004  -0.00001   0.46346
  21        2PX         0.00005  -0.00004  -0.00041   0.00004  -0.00053
  22        2PY        -0.00040  -0.00001   0.00022  -0.00003   0.00008
  23        2PZ         0.00000   0.00000   0.00000   0.00000   0.00000
  24        3S          0.00072  -0.00011   0.00030   0.00015   0.01717
  25        3PX        -0.00001   0.00017   0.00099  -0.00021   0.00015
  26        3PY         0.00114   0.00001  -0.00068   0.00015  -0.00145
  27        3PZ         0.00000   0.00000   0.00000   0.00000   0.00000
  28        4S         -0.00031   0.00034   0.00258   0.00076  -0.00361
  29        4PX         0.00075  -0.00115  -0.00461  -0.00085  -0.00368
  30        4PY        -0.00823  -0.00040   0.00003  -0.00004  -0.00630
  31        4PZ         0.00000   0.00000   0.00000   0.00000   0.00000
  32        5D 0        0.00029  -0.00004   0.00019  -0.00001  -0.00165
  33        5D+1        0.00000   0.00000   0.00000   0.00000   0.00000
  34        5D-1        0.00000   0.00000   0.00000   0.00000   0.00000
  35        5D+2        0.00097  -0.00003  -0.00068   0.00001  -0.00089
  36        5D-2        0.00046  -0.00001   0.00072  -0.00001  -0.00046
  37 3   O  1S          0.55126   0.00002   0.00000   0.00000  -0.00009
  38        2S          0.46975   0.00002   0.00004   0.00000  -0.00008
  39        2PX        -0.00031   0.00000  -0.00001   0.00000  -0.00008
  40        2PY         0.00114   0.00000   0.00007   0.00000   0.00055
  41        2PZ         0.00000   0.00000   0.00000   0.00000   0.00000
  42        3S          0.01389  -0.00001  -0.00023  -0.00004   0.00075
  43        3PX        -0.00012   0.00001   0.00007   0.00001   0.00019
  44        3PY         0.00086   0.00000  -0.00037   0.00001  -0.00175
  45        3PZ         0.00000   0.00000   0.00000   0.00000   0.00000
  46        4S         -0.01093  -0.00018  -0.00031   0.00007  -0.00698
  47        4PX         0.00049   0.00011   0.00088   0.00004   0.00149
  48        4PY        -0.00223  -0.00008   0.00013   0.00009  -0.00257
  49        4PZ         0.00000   0.00000   0.00000   0.00000   0.00000
  50        5D 0       -0.00013   0.00000   0.00000  -0.00002   0.00058
  51        5D+1        0.00000   0.00000   0.00000   0.00000   0.00000
  52        5D-1        0.00000   0.00000   0.00000   0.00000   0.00000
  53        5D+2       -0.00026   0.00001   0.00006  -0.00001   0.00079
  54        5D-2       -0.00011   0.00001   0.00018   0.00000   0.00038
  55 4   N  1S          0.00000   0.00000   0.55729   0.00004  -0.00004
  56        2S          0.00004   0.00003   0.46568   0.00006  -0.00006
  57        2PX         0.00013  -0.00004  -0.00007  -0.00008   0.00041
  58        2PY        -0.00005   0.00000  -0.00001   0.00000  -0.00009
  59        2PZ         0.00000   0.00000   0.00000   0.00000   0.00000
  60        3S         -0.00029  -0.00015   0.01627  -0.00009   0.00066
  61        3PX        -0.00066   0.00019  -0.00019   0.00041  -0.00097
  62        3PY         0.00019   0.00001   0.00002   0.00002   0.00012
  63        3PZ         0.00000   0.00000   0.00000   0.00000   0.00000
  64        4S          0.00200   0.00114  -0.01187  -0.00083  -0.00164
  65        4PX         0.00266  -0.00066  -0.00085  -0.00153  -0.00233
  66        4PY         0.00216  -0.00036   0.00384   0.00058   0.00485
  67        4PZ         0.00000   0.00000   0.00000   0.00000   0.00000
  68        5D 0       -0.00005   0.00005  -0.00076  -0.00001   0.00043
  69        5D+1        0.00000   0.00000   0.00000   0.00000   0.00000
  70        5D-1        0.00000   0.00000   0.00000   0.00000   0.00000
  71        5D+2       -0.00009   0.00001  -0.00013  -0.00009  -0.00076
  72        5D-2        0.00017  -0.00002  -0.00009  -0.00002   0.00034
  73 5   C  1S          0.00000  -0.00001   0.00000  -0.00001   0.00000
  74        2S         -0.00001   0.00003   0.00005   0.00005  -0.00003
  75        2PX        -0.00003  -0.00005   0.00039  -0.00010  -0.00004
  76        2PY        -0.00005   0.00010   0.00033   0.00002   0.00003
  77        2PZ         0.00000   0.00000   0.00000   0.00000   0.00000
  78        3S          0.00029  -0.00009   0.00031  -0.00032   0.00037
  79        3PX         0.00021   0.00038  -0.00111   0.00057   0.00015
  80        3PY         0.00025  -0.00061  -0.00107  -0.00026  -0.00016
  81        3PZ         0.00000   0.00000   0.00000   0.00000   0.00000
  82        4S          0.00145   0.00289   0.00402   0.00146  -0.00091
  83        4PX        -0.00013  -0.00350   0.00242  -0.00035   0.00272
  84        4PY         0.00061  -0.00244   0.00166   0.00151  -0.00219
  85        4PZ         0.00000   0.00000   0.00000   0.00000   0.00000
  86        5D 0        0.00007  -0.00001   0.00018  -0.00002  -0.00001
  87        5D+1        0.00000   0.00000   0.00000   0.00000   0.00000
  88        5D-1        0.00000   0.00000   0.00000   0.00000   0.00000
  89        5D+2        0.00004  -0.00003  -0.00014  -0.00026   0.00007
  90        5D-2       -0.00004   0.00037  -0.00119   0.00023  -0.00015
  91 6   C  1S          0.00000  -0.00001  -0.00001   0.00000   0.00001
  92        2S          0.00000   0.00002   0.00005   0.00006   0.00001
  93        2PX         0.00000  -0.00006   0.00009  -0.00044  -0.00003
  94        2PY         0.00000   0.00039  -0.00005  -0.00033   0.00001
  95        2PZ         0.00000   0.00000   0.00000   0.00000   0.00000
  96        3S         -0.00004   0.00088  -0.00024   0.00032  -0.00004
  97        3PX        -0.00003   0.00036  -0.00058   0.00133   0.00014
  98        3PY         0.00002  -0.00093   0.00029   0.00094  -0.00006
  99        3PZ         0.00000   0.00000   0.00000   0.00000   0.00000
 100        4S         -0.00084  -0.00047  -0.00142   0.00340   0.00347
 101        4PX         0.00006   0.00015  -0.00033  -0.00624   0.00010
 102        4PY         0.00015   0.00991   0.00000  -0.00248  -0.00208
 103        4PZ         0.00000   0.00000   0.00000  -0.00001   0.00000
 104        5D 0       -0.00002   0.00023   0.00004   0.00024   0.00000
 105        5D+1        0.00000   0.00000   0.00000   0.00000   0.00000
 106        5D-1        0.00000   0.00000   0.00000   0.00000   0.00000
 107        5D+2        0.00000   0.00100  -0.00024  -0.00017   0.00004
 108        5D-2        0.00001  -0.00006   0.00027  -0.00112   0.00002
 109 7   O  1S         -0.00002   0.55127   0.00000   0.00000   0.00000
 110        2S         -0.00002   0.46973   0.00002   0.00005   0.00001
 111        2PX         0.00000   0.00007   0.00002  -0.00001  -0.00001
 112        2PY        -0.00001  -0.00117  -0.00003  -0.00006   0.00001
 113        2PZ         0.00000   0.00000   0.00000   0.00000   0.00000
 114        3S         -0.00003   0.01402  -0.00015  -0.00030  -0.00011
 115        3PX        -0.00001   0.00004  -0.00008   0.00003   0.00003
 116        3PY         0.00003  -0.00076   0.00016   0.00031  -0.00004
 117        3PZ         0.00000   0.00000   0.00000   0.00000   0.00000
 118        4S          0.00007  -0.01210   0.00022   0.00039   0.00076
 119        4PX        -0.00004  -0.00019   0.00004   0.00101  -0.00001
 120        4PY        -0.00008   0.00261  -0.00015   0.00003  -0.00009
 121        4PZ         0.00000   0.00000   0.00000   0.00000   0.00000
 122        5D 0        0.00000  -0.00011   0.00002   0.00001   0.00000
 123        5D+1        0.00000   0.00000   0.00000   0.00000   0.00000
 124        5D-1        0.00000   0.00000   0.00000   0.00000   0.00000
 125        5D+2        0.00000  -0.00023   0.00002   0.00013  -0.00001
 126        5D-2        0.00000  -0.00001   0.00002  -0.00016   0.00000
 127 8   N  1S          0.00000   0.00000  -0.00004   0.55733   0.00000
 128        2S          0.00000   0.00005  -0.00002   0.46568  -0.00001
 129        2PX         0.00001   0.00006   0.00008  -0.00015   0.00000
 130        2PY         0.00000   0.00009   0.00000  -0.00009  -0.00001
 131        2PZ         0.00000   0.00000   0.00000   0.00001   0.00000
 132        3S         -0.00004  -0.00048  -0.00011   0.01622   0.00021
 133        3PX        -0.00004  -0.00036  -0.00037   0.00066   0.00003
 134        3PY        -0.00002  -0.00043  -0.00004  -0.00015   0.00005
 135        3PZ         0.00000   0.00000   0.00000   0.00001   0.00000
 136        4S          0.00024   0.00429  -0.00002  -0.01233  -0.00175
 137        4PX         0.00019   0.00302   0.00148  -0.00078  -0.00083
 138        4PY         0.00013  -0.00129  -0.00034  -0.00444  -0.00002
 139        4PZ         0.00000   0.00001   0.00000   0.00000   0.00000
 140        5D 0        0.00000  -0.00009  -0.00001  -0.00071   0.00003
 141        5D+1        0.00000   0.00000   0.00000   0.00000   0.00000
 142        5D-1        0.00000   0.00000   0.00000  -0.00001   0.00000
 143        5D+2        0.00000   0.00002  -0.00007  -0.00039   0.00001
 144        5D-2        0.00000  -0.00020  -0.00001   0.00012   0.00001
 145 9   C  1S          0.00000   0.00000   0.00000   0.00002   0.00000
 146        2S          0.00000   0.00000  -0.00001  -0.00005   0.00000
 147        2PX         0.00000  -0.00001  -0.00003   0.00028  -0.00002
 148        2PY         0.00000   0.00004   0.00002  -0.00018   0.00000
 149        2PZ         0.00000   0.00000   0.00000   0.00000   0.00000
 150        3S         -0.00001   0.00018   0.00004   0.00043  -0.00001
 151        3PX        -0.00001   0.00012   0.00016  -0.00045   0.00007
 152        3PY         0.00000  -0.00021  -0.00008   0.00042   0.00000
 153        3PZ         0.00000   0.00000   0.00000   0.00000   0.00000
 154        4S          0.00009   0.00094   0.00124   0.00415  -0.00028
 155        4PX         0.00003   0.00009   0.00030   0.00114  -0.00009
 156        4PY        -0.00001  -0.00017  -0.00014   0.00017   0.00010
 157        4PZ         0.00000  -0.00001  -0.00001  -0.00002   0.00000
 158        5D 0        0.00000   0.00007  -0.00001   0.00044  -0.00002
 159        5D+1        0.00000   0.00000   0.00000   0.00001   0.00000
 160        5D-1        0.00000   0.00000   0.00000   0.00000   0.00000
 161        5D+2       -0.00001   0.00003  -0.00001  -0.00025   0.00002
 162        5D-2        0.00000   0.00000  -0.00002   0.00056  -0.00001
 163 10  H  1S          0.00007  -0.00001  -0.00008  -0.00002  -0.00002
 164        2S         -0.00117  -0.00002   0.00007   0.00002  -0.00111
 165        3S         -0.00036   0.00017   0.00028  -0.00008  -0.00002
 166        4PX        -0.00011  -0.00001   0.00002   0.00001  -0.00021
 167        4PY         0.00022   0.00000   0.00009   0.00000   0.00028
 168        4PZ         0.00000   0.00000   0.00000   0.00000   0.00000
 169 11  H  1S          0.00005   0.00001   0.00003   0.00001  -0.00008
 170        2S         -0.00049  -0.00013  -0.00043  -0.00010  -0.00107
 171        3S         -0.00003   0.00000  -0.00009  -0.00002   0.00046
 172        4PX         0.00015   0.00001  -0.00003   0.00000   0.00022
 173        4PY        -0.00003   0.00000   0.00002   0.00000  -0.00016
 174        4PZ         0.00008   0.00003   0.00013   0.00002   0.00034
 175 12  H  1S          0.00005   0.00001   0.00003   0.00001  -0.00008
 176        2S         -0.00049  -0.00013  -0.00043  -0.00010  -0.00107
 177        3S         -0.00003   0.00000  -0.00009  -0.00002   0.00046
 178        4PX         0.00015   0.00001  -0.00003   0.00000   0.00022
 179        4PY        -0.00003   0.00000   0.00002   0.00000  -0.00016
 180        4PZ        -0.00008  -0.00003  -0.00013  -0.00002  -0.00034
 181 13  H  1S         -0.00001  -0.00009   0.00004  -0.00004   0.00007
 182        2S         -0.00109   0.00022  -0.00252  -0.00026  -0.00269
 183        3S          0.00022  -0.00029   0.00029   0.00018   0.00023
 184        4PX        -0.00017   0.00006  -0.00030  -0.00001   0.00014
 185        4PY         0.00019  -0.00004   0.00171   0.00003   0.00048
 186        4PZ         0.00000   0.00000   0.00000   0.00000   0.00000
 187 14  H  1S         -0.00002   0.00011  -0.00021  -0.00011   0.00005
 188        2S          0.00024  -0.00130  -0.00046   0.00024  -0.00092
 189        3S         -0.00026  -0.00060  -0.00005   0.00023  -0.00114
 190        4PX        -0.00008   0.00025  -0.00026   0.00010  -0.00019
 191        4PY         0.00008  -0.00020  -0.00040  -0.00010  -0.00014
 192        4PZ         0.00000   0.00000   0.00000   0.00000   0.00000
 193 15  H  1S          0.00000  -0.00002   0.00000  -0.00004  -0.00001
 194        2S         -0.00001  -0.00001  -0.00010  -0.00084   0.00009
 195        3S         -0.00001  -0.00008  -0.00011  -0.00007  -0.00004
 196        4PX         0.00000   0.00003  -0.00001  -0.00019   0.00001
 197        4PY         0.00000   0.00001   0.00000  -0.00012   0.00000
 198        4PZ         0.00000   0.00003   0.00000   0.00023  -0.00002
 199 16  H  1S          0.00000   0.00001  -0.00002   0.00000   0.00000
 200        2S         -0.00001  -0.00146  -0.00033  -0.00273   0.00027
 201        3S          0.00012   0.00019   0.00030   0.00023   0.00015
 202        4PX         0.00000  -0.00008  -0.00003   0.00027   0.00003
 203        4PY         0.00000  -0.00035  -0.00004  -0.00185   0.00010
 204        4PZ         0.00000   0.00000   0.00000   0.00001   0.00000
 205 17  H  1S          0.00000  -0.00002   0.00000  -0.00004  -0.00001
 206        2S         -0.00001  -0.00002  -0.00010  -0.00085   0.00009
 207        3S         -0.00001  -0.00009  -0.00011  -0.00007  -0.00004
 208        4PX         0.00000   0.00003  -0.00001  -0.00020   0.00001
 209        4PY         0.00000   0.00001   0.00000  -0.00012   0.00000
 210        4PZ         0.00000  -0.00003   0.00000  -0.00023   0.00002
 211 18  H  1S          0.00000  -0.00003   0.00002  -0.00002   0.00000
 212        2S         -0.00004   0.00012  -0.00016  -0.00103   0.00003
 213        3S          0.00002  -0.00029   0.00002  -0.00055   0.00003
 214        4PX         0.00000  -0.00005   0.00001   0.00004   0.00001
 215        4PY         0.00001  -0.00010   0.00001   0.00024  -0.00001
 216        4PZ         0.00000   0.00000   0.00000   0.00000   0.00000
                           6         7         8         9        10
                           O         O         O         O         O
     Eigenvalues --   -10.27413 -10.22402 -10.20565 -10.18622  -1.05493
   1 1   C  1S          0.00000   0.00002   0.00000   0.56293  -0.01059
   2        2S          0.00000   0.00001   0.00000   0.46324  -0.01627
   3        2PX         0.00000   0.00002   0.00000  -0.00022  -0.00690
   4        2PY         0.00000   0.00002   0.00000  -0.00014  -0.00833
   5        2PZ         0.00000   0.00000   0.00000   0.00000   0.00000
   6        3S         -0.00014   0.00005  -0.00002   0.01873   0.04298
   7        3PX         0.00000  -0.00015  -0.00001   0.00117  -0.01149
   8        3PY         0.00000  -0.00008   0.00001   0.00092  -0.01625
   9        3PZ         0.00000   0.00000   0.00000   0.00000  -0.00001
  10        4S          0.00243   0.00166   0.00059  -0.00761  -0.01315
  11        4PX        -0.00047   0.00013  -0.00017   0.00060   0.00764
  12        4PY        -0.00075  -0.00070  -0.00014   0.00128   0.00075
  13        4PZ         0.00000   0.00000   0.00000   0.00000  -0.00001
  14        5D 0        0.00001   0.00005   0.00000   0.00032  -0.00176
  15        5D+1        0.00000   0.00000   0.00000   0.00000   0.00000
  16        5D-1        0.00000   0.00000   0.00000   0.00000   0.00000
  17        5D+2        0.00000  -0.00002   0.00000  -0.00008  -0.00173
  18        5D-2       -0.00001   0.00000   0.00000  -0.00055   0.00430
  19 2   C  1S         -0.00001   0.00001   0.00000  -0.00068  -0.06828
  20        2S         -0.00001  -0.00002   0.00000  -0.00055  -0.10406
  21        2PX        -0.00002   0.00000   0.00001   0.00039  -0.00364
  22        2PY        -0.00002   0.00006  -0.00001   0.00043  -0.06404
  23        2PZ         0.00000   0.00000   0.00000   0.00000   0.00000
  24        3S          0.00000   0.00026  -0.00003   0.00018   0.27631
  25        3PX         0.00013   0.00003  -0.00001  -0.00092  -0.01049
  26        3PY         0.00013  -0.00020   0.00006  -0.00117  -0.07857
  27        3PZ         0.00000   0.00000   0.00000   0.00000  -0.00001
  28        4S         -0.00029   0.00052  -0.00048   0.00126   0.06833
  29        4PX        -0.00199  -0.00228  -0.00022   0.00251   0.01029
  30        4PY        -0.00165  -0.00155  -0.00052   0.00009   0.03024
  31        4PZ         0.00000   0.00000   0.00000   0.00000   0.00001
  32        5D 0       -0.00002  -0.00003  -0.00001   0.00021  -0.01608
  33        5D+1        0.00000   0.00000   0.00000   0.00000   0.00001
  34        5D-1        0.00000   0.00000   0.00000   0.00000  -0.00001
  35        5D+2        0.00000   0.00002   0.00003  -0.00011  -0.01358
  36        5D-2        0.00003   0.00017   0.00001  -0.00080  -0.01004
  37 3   O  1S          0.00000   0.00000   0.00000   0.00000  -0.08755
  38        2S          0.00000  -0.00001   0.00000   0.00002  -0.13983
  39        2PX        -0.00002   0.00000  -0.00001   0.00000  -0.01621
  40        2PY         0.00000   0.00004   0.00000   0.00007   0.06304
  41        2PZ         0.00000   0.00000   0.00000   0.00000  -0.00001
  42        3S          0.00001   0.00018  -0.00001  -0.00005   0.40005
  43        3PX         0.00007  -0.00001   0.00003   0.00003  -0.02355
  44        3PY        -0.00002  -0.00016   0.00001  -0.00037   0.09211
  45        3PZ         0.00000   0.00000   0.00000   0.00000  -0.00002
  46        4S         -0.00053  -0.00115  -0.00008  -0.00099   0.28156
  47        4PX         0.00009   0.00060  -0.00007  -0.00029  -0.01357
  48        4PY         0.00005   0.00015   0.00004  -0.00030   0.03675
  49        4PZ         0.00000   0.00000   0.00000   0.00000  -0.00001
  50        5D 0       -0.00003  -0.00001  -0.00001   0.00004  -0.00552
  51        5D+1        0.00000   0.00000   0.00000   0.00000   0.00000
  52        5D-1        0.00000   0.00000   0.00000   0.00000   0.00000
  53        5D+2        0.00000  -0.00002  -0.00001   0.00015  -0.01118
  54        5D-2        0.00001   0.00004   0.00000  -0.00001  -0.00607
  55 4   N  1S          0.00000  -0.00005   0.00000   0.00000  -0.04517
  56        2S          0.00004  -0.00006  -0.00001   0.00003  -0.07088
  57        2PX        -0.00009  -0.00041   0.00000   0.00009   0.00927
  58        2PY        -0.00002  -0.00025   0.00001   0.00002  -0.01295
  59        2PZ         0.00000   0.00000   0.00000   0.00000   0.00000
  60        3S         -0.00016   0.00073   0.00014  -0.00021   0.19443
  61        3PX         0.00050   0.00097   0.00001  -0.00049   0.01642
  62        3PY         0.00008   0.00053  -0.00005  -0.00009  -0.02060
  63        3PZ         0.00000   0.00000   0.00000   0.00000   0.00001
  64        4S         -0.00070  -0.00185  -0.00184   0.00056   0.11890
  65        4PX        -0.00015  -0.00005   0.00103   0.00148  -0.00008
  66        4PY         0.00067   0.00357   0.00011   0.00100  -0.02677
  67        4PZ         0.00000   0.00000   0.00000   0.00000   0.00000
  68        5D 0        0.00005   0.00055   0.00003   0.00000  -0.00522
  69        5D+1        0.00000   0.00000   0.00000   0.00000   0.00001
  70        5D-1        0.00000   0.00000   0.00000   0.00000   0.00000
  71        5D+2       -0.00011  -0.00034   0.00000  -0.00015   0.00251
  72        5D-2       -0.00020  -0.00074  -0.00001   0.00002  -0.00274
  73 5   C  1S          0.00195   0.56268   0.00001  -0.00002  -0.02039
  74        2S          0.00174   0.46340   0.00003  -0.00002  -0.03135
  75        2PX        -0.00068   0.00052   0.00002   0.00000   0.01293
  76        2PY         0.00035   0.00049  -0.00003  -0.00002   0.01197
  77        2PZ         0.00000   0.00000   0.00000   0.00000   0.00001
  78        3S         -0.00030   0.01866  -0.00024   0.00007   0.08093
  79        3PX         0.00243  -0.00013  -0.00009   0.00002   0.01786
  80        3PY        -0.00142  -0.00129   0.00017   0.00011   0.01920
  81        3PZ         0.00000   0.00000   0.00000   0.00000   0.00002
  82        4S          0.00806  -0.00720   0.00602   0.00096   0.00270
  83        4PX        -0.00497   0.00285  -0.00153   0.00148  -0.00078
  84        4PY         0.00194  -0.00371   0.00337  -0.00024  -0.00231
  85        4PZ         0.00000   0.00000   0.00000   0.00000   0.00000
  86        5D 0        0.00038  -0.00159  -0.00005  -0.00003  -0.00410
  87        5D+1        0.00000   0.00000   0.00000   0.00000   0.00001
  88        5D-1        0.00000   0.00000   0.00000   0.00000   0.00000
  89        5D+2       -0.00081  -0.00065   0.00009  -0.00002   0.00274
  90        5D-2        0.00106  -0.00062   0.00003  -0.00002   0.00368
  91 6   C  1S          0.56300  -0.00203   0.00000   0.00000  -0.02087
  92        2S          0.46342  -0.00152  -0.00001   0.00001  -0.03187
  93        2PX        -0.00042   0.00071   0.00000   0.00000   0.00083
  94        2PY        -0.00011  -0.00040  -0.00001   0.00000   0.01514
  95        2PZ         0.00000   0.00000   0.00000   0.00000   0.00000
  96        3S          0.01717  -0.00044   0.00025  -0.00010   0.08411
  97        3PX         0.00057  -0.00243   0.00013  -0.00001   0.00172
  98        3PY         0.00069   0.00146  -0.00002  -0.00001   0.01811
  99        3PZ         0.00000   0.00000   0.00000   0.00000   0.00001
 100        4S         -0.00622   0.00449  -0.00372   0.00065   0.02590
 101        4PX        -0.00702   0.00382  -0.00527   0.00057   0.01042
 102        4PY         0.00595   0.00108   0.00181  -0.00017  -0.00715
 103        4PZ        -0.00001   0.00000   0.00000   0.00000   0.00001
 104        5D 0       -0.00173   0.00049   0.00001  -0.00002  -0.00536
 105        5D+1        0.00000   0.00000   0.00000   0.00000   0.00000
 106        5D-1        0.00000   0.00000   0.00000   0.00000   0.00000
 107        5D+2       -0.00061  -0.00094   0.00008   0.00000  -0.00335
 108        5D-2       -0.00010   0.00115  -0.00002   0.00000   0.00027
 109 7   O  1S         -0.00008   0.00000   0.00000   0.00000  -0.02429
 110        2S         -0.00010   0.00002   0.00000   0.00001  -0.03878
 111        2PX         0.00005   0.00001  -0.00001   0.00000   0.00166
 112        2PY        -0.00050  -0.00009  -0.00003   0.00000  -0.01779
 113        2PZ         0.00000   0.00000   0.00000   0.00000  -0.00001
 114        3S          0.00092  -0.00002   0.00005  -0.00005   0.11060
 115        3PX        -0.00021  -0.00006   0.00001  -0.00001   0.00255
 116        3PY         0.00141   0.00049   0.00010   0.00001  -0.02647
 117        3PZ         0.00000   0.00000   0.00000   0.00000  -0.00001
 118        4S         -0.00660  -0.00196  -0.00060   0.00010   0.07864
 119        4PX         0.00093  -0.00035   0.00066  -0.00002   0.00061
 120        4PY         0.00276   0.00055  -0.00021  -0.00003  -0.01092
 121        4PZ         0.00000   0.00000   0.00000   0.00000  -0.00001
 122        5D 0        0.00055   0.00003  -0.00003  -0.00001  -0.00177
 123        5D+1        0.00000   0.00000   0.00000   0.00000   0.00000
 124        5D-1        0.00000   0.00000   0.00000   0.00000   0.00000
 125        5D+2        0.00080   0.00022  -0.00003   0.00000  -0.00330
 126        5D-2        0.00003   0.00007  -0.00004   0.00000  -0.00035
 127 8   N  1S         -0.00005   0.00000  -0.00003   0.00000  -0.00927
 128        2S         -0.00005   0.00004  -0.00009   0.00000  -0.01451
 129        2PX         0.00039   0.00009  -0.00024   0.00001   0.00353
 130        2PY         0.00022   0.00004   0.00009   0.00000   0.00360
 131        2PZ         0.00000   0.00000   0.00000   0.00000   0.00003
 132        3S          0.00067  -0.00026   0.00076  -0.00003   0.03948
 133        3PX        -0.00102  -0.00050   0.00017  -0.00006   0.00598
 134        3PY        -0.00053  -0.00020  -0.00003   0.00000   0.00570
 135        3PZ         0.00000   0.00000   0.00000   0.00000   0.00005
 136        4S         -0.00196   0.00083  -0.00152   0.00004   0.02457
 137        4PX        -0.00028   0.00116   0.00144   0.00031  -0.00310
 138        4PY        -0.00438  -0.00028  -0.00266   0.00006   0.00829
 139        4PZ         0.00001   0.00000   0.00001   0.00000   0.00001
 140        5D 0        0.00053   0.00003   0.00019   0.00000  -0.00111
 141        5D+1        0.00000   0.00000   0.00000   0.00000   0.00000
 142        5D-1        0.00000   0.00000   0.00000   0.00000   0.00001
 143        5D+2       -0.00048  -0.00016  -0.00035  -0.00001   0.00016
 144        5D-2       -0.00070  -0.00019   0.00028   0.00001   0.00090
 145 9   C  1S          0.00000  -0.00002   0.56301   0.00000  -0.00262
 146        2S         -0.00002   0.00000   0.46325   0.00000  -0.00398
 147        2PX        -0.00007   0.00000   0.00073   0.00000   0.00285
 148        2PY        -0.00003   0.00001  -0.00050   0.00001  -0.00052
 149        2PZ         0.00000   0.00000   0.00000   0.00000  -0.00001
 150        3S          0.00025  -0.00013   0.01844  -0.00002   0.00960
 151        3PX         0.00039  -0.00002  -0.00151   0.00001   0.00381
 152        3PY         0.00010  -0.00008   0.00119  -0.00003  -0.00068
 153        3PZ         0.00000   0.00000   0.00000   0.00000  -0.00001
 154        4S          0.00065   0.00151  -0.00367   0.00030  -0.00188
 155        4PX         0.00027   0.00067  -0.00011   0.00011  -0.00026
 156        4PY         0.00113   0.00015  -0.00018  -0.00003  -0.00077
 157        4PZ        -0.00001   0.00000  -0.00002   0.00000   0.00004
 158        5D 0       -0.00004   0.00001   0.00040   0.00000  -0.00082
 159        5D+1        0.00000   0.00000   0.00000   0.00000  -0.00001
 160        5D-1        0.00000   0.00000   0.00000   0.00000   0.00000
 161        5D+2        0.00010   0.00001  -0.00049   0.00000   0.00082
 162        5D-2        0.00015   0.00003   0.00065  -0.00001  -0.00048
 163 10  H  1S          0.00001   0.00001   0.00001   0.00014   0.00369
 164        2S         -0.00015   0.00012  -0.00009  -0.00282   0.00856
 165        3S          0.00006  -0.00002   0.00004   0.00138   0.00096
 166        4PX         0.00000   0.00004   0.00000  -0.00092   0.00010
 167        4PY         0.00003   0.00002   0.00002   0.00190  -0.00216
 168        4PZ         0.00000   0.00000   0.00000   0.00000   0.00000
 169 11  H  1S          0.00002  -0.00001   0.00000   0.00007   0.00443
 170        2S         -0.00026  -0.00010  -0.00005  -0.00258   0.00703
 171        3S         -0.00002  -0.00012   0.00000   0.00149  -0.00074
 172        4PX         0.00001  -0.00006   0.00001   0.00117  -0.00121
 173        4PY         0.00000   0.00000   0.00000  -0.00036  -0.00021
 174        4PZ         0.00004   0.00004   0.00001   0.00172  -0.00142
 175 12  H  1S          0.00002  -0.00001   0.00000   0.00007   0.00443
 176        2S         -0.00026  -0.00010  -0.00005  -0.00257   0.00702
 177        3S         -0.00002  -0.00012   0.00000   0.00149  -0.00074
 178        4PX         0.00001  -0.00006   0.00001   0.00117  -0.00120
 179        4PY         0.00000   0.00000   0.00000  -0.00035  -0.00022
 180        4PZ        -0.00004  -0.00004  -0.00001  -0.00172   0.00142
 181 13  H  1S         -0.00012   0.00008  -0.00003  -0.00005   0.02329
 182        2S          0.00004  -0.00173   0.00038  -0.00043   0.03050
 183        3S         -0.00015   0.00013  -0.00014  -0.00013  -0.00345
 184        4PX        -0.00011  -0.00036  -0.00003  -0.00009   0.00198
 185        4PY        -0.00005   0.00022  -0.00010   0.00006  -0.00754
 186        4PZ         0.00000   0.00000   0.00000   0.00000   0.00000
 187 14  H  1S         -0.00013   0.00014  -0.00010   0.00000   0.00799
 188        2S         -0.00095  -0.00547   0.00081  -0.00023   0.01065
 189        3S          0.00063   0.00129   0.00054  -0.00022   0.00134
 190        4PX         0.00036   0.00016   0.00001  -0.00006   0.00086
 191        4PY        -0.00050  -0.00290   0.00010  -0.00002   0.00254
 192        4PZ         0.00000   0.00000   0.00000   0.00000   0.00000
 193 15  H  1S         -0.00001   0.00001   0.00011   0.00000   0.00093
 194        2S          0.00020  -0.00018  -0.00303  -0.00003   0.00123
 195        3S          0.00011   0.00004   0.00136  -0.00002   0.00029
 196        4PX         0.00001  -0.00005  -0.00094  -0.00001   0.00023
 197        4PY        -0.00006  -0.00003  -0.00068   0.00000   0.00013
 198        4PZ        -0.00007   0.00001   0.00180   0.00000  -0.00025
 199 16  H  1S          0.00006  -0.00006   0.00001  -0.00001   0.00468
 200        2S         -0.00208  -0.00035  -0.00136   0.00001   0.00802
 201        3S         -0.00011   0.00012  -0.00019   0.00010  -0.00157
 202        4PX         0.00034   0.00002  -0.00010  -0.00001   0.00008
 203        4PY        -0.00033  -0.00007  -0.00025   0.00001   0.00172
 204        4PZ         0.00001   0.00000   0.00000   0.00000  -0.00001
 205 17  H  1S         -0.00001   0.00001   0.00011   0.00000   0.00093
 206        2S          0.00019  -0.00018  -0.00304  -0.00003   0.00125
 207        3S          0.00010   0.00004   0.00135  -0.00002   0.00031
 208        4PX         0.00001  -0.00005  -0.00096  -0.00001   0.00023
 209        4PY        -0.00006  -0.00003  -0.00068   0.00000   0.00013
 210        4PZ         0.00007  -0.00001  -0.00180   0.00000   0.00024
 211 18  H  1S         -0.00002  -0.00001   0.00010   0.00000   0.00152
 212        2S         -0.00043  -0.00016  -0.00332  -0.00003   0.00278
 213        3S         -0.00095  -0.00014   0.00126   0.00002   0.00152
 214        4PX        -0.00005   0.00006   0.00023   0.00001   0.00027
 215        4PY         0.00003  -0.00001   0.00228   0.00000  -0.00041
 216        4PZ         0.00000   0.00000   0.00000   0.00000   0.00000
                          11        12        13        14        15
                           O         O         O         O         O
     Eigenvalues --    -1.03626  -0.95377  -0.92771  -0.77691  -0.73681
   1 1   C  1S          0.00327  -0.00377  -0.00036  -0.06686  -0.06507
   2        2S          0.00502  -0.00578  -0.00054  -0.10348  -0.10088
   3        2PX         0.00170  -0.00580  -0.00051  -0.01742  -0.00097
   4        2PY         0.00300   0.00209   0.00009  -0.00914  -0.00506
   5        2PZ         0.00000   0.00000   0.00000  -0.00001  -0.00001
   6        3S         -0.01316   0.01456   0.00143   0.27306   0.26711
   7        3PX         0.00250  -0.01100  -0.00073  -0.03334  -0.00617
   8        3PY         0.00587   0.00319   0.00027  -0.01957  -0.01086
   9        3PZ         0.00000   0.00000   0.00000  -0.00002  -0.00001
  10        4S          0.00045   0.00430   0.00068   0.12951   0.14038
  11        4PX        -0.00281  -0.00689  -0.00125  -0.00221   0.00329
  12        4PY         0.00242   0.00639   0.00013   0.00674   0.00436
  13        4PZ         0.00000   0.00000   0.00000   0.00000  -0.00001
  14        5D 0        0.00037  -0.00133  -0.00005  -0.00380  -0.00098
  15        5D+1        0.00000   0.00000   0.00000   0.00000   0.00000
  16        5D-1        0.00000   0.00000   0.00000   0.00000   0.00000
  17        5D+2        0.00105   0.00373   0.00029   0.00236  -0.00037
  18        5D-2       -0.00134   0.00085   0.00005   0.00553   0.00177
  19 2   C  1S          0.02122  -0.00464  -0.00076  -0.04270  -0.01213
  20        2S          0.03229  -0.00762  -0.00114  -0.06687  -0.01908
  21        2PX        -0.00611  -0.05439  -0.00448  -0.00094   0.04755
  22        2PY         0.02814   0.06486   0.00462   0.07374   0.03052
  23        2PZ         0.00000  -0.00004   0.00000  -0.00001   0.00002
  24        3S         -0.08601   0.02017   0.00234   0.18767   0.05263
  25        3PX        -0.00755  -0.07770  -0.00484   0.00252   0.07240
  26        3PY         0.03570   0.08706   0.00552   0.10515   0.04559
  27        3PZ        -0.00001  -0.00005   0.00000  -0.00002   0.00002
  28        4S         -0.02536  -0.00581  -0.00378   0.09259   0.04147
  29        4PX         0.00356   0.00973   0.00162   0.01574   0.02393
  30        4PY        -0.00750   0.00321  -0.00058   0.03938   0.02669
  31        4PZ         0.00000   0.00000   0.00000   0.00000   0.00001
  32        5D 0        0.00496  -0.00101  -0.00013  -0.00554  -0.00089
  33        5D+1        0.00000   0.00001   0.00000   0.00001   0.00000
  34        5D-1        0.00000   0.00000   0.00000   0.00000   0.00000
  35        5D+2        0.00734   0.02119   0.00139   0.00555  -0.00174
  36        5D-2        0.00270  -0.00281  -0.00001   0.00092   0.00939
  37 3   O  1S          0.03417   0.05111   0.00346   0.02548   0.00872
  38        2S          0.05461   0.08189   0.00555   0.04114   0.01412
  39        2PX         0.00516   0.00008  -0.00021   0.00645   0.01233
  40        2PY        -0.02394  -0.02984  -0.00191   0.00108   0.00304
  41        2PZ         0.00000   0.00000   0.00000   0.00000   0.00000
  42        3S         -0.15656  -0.23690  -0.01607  -0.12187  -0.04276
  43        3PX         0.00751   0.00001  -0.00035   0.00977   0.01881
  44        3PY        -0.03460  -0.04212  -0.00275   0.00065   0.00445
  45        3PZ         0.00001   0.00000   0.00000   0.00000   0.00001
  46        4S         -0.10925  -0.16912  -0.01184  -0.09665  -0.02987
  47        4PX         0.00307  -0.00361  -0.00042   0.00224   0.00741
  48        4PY        -0.01385  -0.01673  -0.00145   0.00436   0.00399
  49        4PZ         0.00000   0.00000   0.00000   0.00000   0.00000
  50        5D 0        0.00202   0.00215   0.00016   0.00023  -0.00010
  51        5D+1        0.00000   0.00000   0.00000   0.00000   0.00000
  52        5D-1        0.00000   0.00000   0.00000   0.00000   0.00000
  53        5D+2        0.00432   0.00613   0.00047   0.00059  -0.00099
  54        5D-2        0.00192   0.00029   0.00000   0.00136   0.00317
  55 4   N  1S         -0.00477  -0.09637  -0.00628  -0.00753   0.02435
  56        2S         -0.00750  -0.15168  -0.00986  -0.01192   0.03869
  57        2PX        -0.01254  -0.01053   0.00068   0.08056  -0.00638
  58        2PY         0.00342  -0.00582  -0.00267   0.02796  -0.00163
  59        2PZ        -0.00001  -0.00001   0.00000   0.00005  -0.00001
  60        3S          0.02019   0.41861   0.02696   0.03295  -0.11036
  61        3PX        -0.02088  -0.01594  -0.00010   0.11962  -0.01149
  62        3PY         0.00424  -0.00904  -0.00297   0.04207  -0.00326
  63        3PZ        -0.00001  -0.00002   0.00000   0.00008  -0.00001
  64        4S          0.01154   0.29539   0.03068   0.02713  -0.09411
  65        4PX        -0.00080   0.01067   0.00596   0.06539  -0.00146
  66        4PY         0.00392  -0.01168  -0.00610   0.02097  -0.00325
  67        4PZ         0.00001   0.00000   0.00000   0.00006  -0.00002
  68        5D 0       -0.00108  -0.00962  -0.00041  -0.00006   0.00078
  69        5D+1        0.00000   0.00001   0.00000   0.00000   0.00000
  70        5D-1        0.00000   0.00000   0.00000   0.00000   0.00000
  71        5D+2        0.00116   0.00404   0.00058   0.00253   0.00370
  72        5D-2        0.00211   0.00301   0.00016  -0.00579   0.00330
  73 5   C  1S         -0.01600  -0.04410  -0.00990   0.06060  -0.03047
  74        2S         -0.02470  -0.06810  -0.01534   0.09452  -0.04772
  75        2PX        -0.01063   0.03952  -0.00566   0.00687  -0.04708
  76        2PY         0.01218   0.02878  -0.00317  -0.01547  -0.00520
  77        2PZ         0.00000   0.00003   0.00000  -0.00001  -0.00002
  78        3S          0.06616   0.18111   0.04065  -0.25785   0.13055
  79        3PX        -0.01795   0.05978  -0.00929   0.01296  -0.07201
  80        3PY         0.02099   0.04552  -0.00305  -0.02438  -0.00423
  81        3PZ         0.00001   0.00005   0.00000  -0.00001  -0.00004
  82        4S          0.00883   0.06425   0.01082  -0.11920   0.08111
  83        4PX         0.00640  -0.00857  -0.01090   0.01060  -0.01771
  84        4PY         0.01120   0.00383  -0.01587   0.00133  -0.00086
  85        4PZ        -0.00001   0.00000  -0.00001  -0.00001   0.00000
  86        5D 0       -0.00204  -0.00719  -0.00122   0.00467  -0.00087
  87        5D+1        0.00000   0.00001   0.00000   0.00000   0.00000
  88        5D-1        0.00000   0.00001   0.00000   0.00000  -0.00001
  89        5D+2       -0.00013   0.00377   0.00561  -0.00144   0.00309
  90        5D-2       -0.00437   0.01416   0.00225   0.00037  -0.00883
  91 6   C  1S         -0.06841   0.00840  -0.01170   0.02523  -0.03966
  92        2S         -0.10443   0.01273  -0.01840   0.03942  -0.06195
  93        2PX        -0.01179   0.02333  -0.03875  -0.03567   0.01161
  94        2PY         0.05900  -0.01656  -0.08247   0.04212  -0.05877
  95        2PZ         0.00001   0.00000  -0.00005   0.00002  -0.00007
  96        3S          0.27711  -0.03394   0.05029  -0.11077   0.17511
  97        3PX        -0.01825   0.03656  -0.05700  -0.05289   0.01595
  98        3PY         0.07351  -0.02270  -0.11279   0.05880  -0.08038
  99        3PZ         0.00002   0.00000  -0.00006   0.00004  -0.00010
 100        4S          0.06364  -0.01283   0.00206  -0.04516   0.06645
 101        4PX         0.01182   0.00393   0.02135  -0.01466   0.01507
 102        4PY        -0.02834   0.00691   0.00423   0.02157  -0.02119
 103        4PZ         0.00003   0.00000   0.00002  -0.00002   0.00003
 104        5D 0       -0.01709   0.00207  -0.00237   0.00282  -0.00472
 105        5D+1        0.00000   0.00000   0.00001  -0.00001   0.00002
 106        5D-1        0.00002  -0.00001   0.00000   0.00000   0.00001
 107        5D+2       -0.01739   0.00810   0.01569  -0.00526  -0.00009
 108        5D-2        0.00256  -0.00303   0.01229   0.00294   0.00189
 109 7   O  1S         -0.08857   0.02035   0.05196  -0.01807   0.01754
 110        2S         -0.14140   0.03255   0.08326  -0.02914   0.02836
 111        2PX         0.00213   0.00497  -0.00770  -0.00860   0.00415
 112        2PY        -0.06363   0.01308   0.02689  -0.00115  -0.00405
 113        2PZ        -0.00003   0.00001   0.00001   0.00000  -0.00002
 114        3S          0.40358  -0.09381  -0.24028   0.08623  -0.08383
 115        3PX         0.00327   0.00750  -0.01137  -0.01310   0.00616
 116        3PY        -0.09338   0.01850   0.03914  -0.00232  -0.00399
 117        3PZ        -0.00004   0.00001   0.00001   0.00000  -0.00002
 118        4S          0.29442  -0.07064  -0.18299   0.06686  -0.07311
 119        4PX         0.00097   0.00382  -0.01118  -0.00534   0.00125
 120        4PY        -0.04137   0.00851   0.01587   0.00215  -0.00526
 121        4PZ        -0.00002   0.00000   0.00000   0.00001  -0.00003
 122        5D 0       -0.00584   0.00079   0.00238  -0.00016   0.00028
 123        5D+1        0.00000   0.00000   0.00000   0.00000   0.00000
 124        5D-1        0.00001   0.00000   0.00000   0.00000   0.00000
 125        5D+2       -0.01191   0.00262   0.00519  -0.00090   0.00026
 126        5D-2       -0.00046  -0.00118   0.00276   0.00208  -0.00067
 127 8   N  1S         -0.03581   0.01694  -0.09769  -0.00659  -0.00407
 128        2S         -0.05614   0.02667  -0.15370  -0.01046  -0.00640
 129        2PX         0.01150  -0.00011   0.00249  -0.03636   0.08228
 130        2PY         0.01380  -0.00461   0.00088   0.00520  -0.00872
 131        2PZ         0.00013  -0.00007   0.00042   0.00007  -0.00009
 132        3S          0.15375  -0.07382   0.42188   0.02942   0.01769
 133        3PX         0.01799   0.00066   0.00097  -0.05491   0.12255
 134        3PY         0.02258  -0.00796   0.00254   0.00787  -0.01296
 135        3PZ         0.00020  -0.00011   0.00065   0.00012  -0.00014
 136        4S          0.08914  -0.04504   0.31404   0.03066   0.00856
 137        4PX        -0.00564   0.00083   0.00645  -0.02825   0.07508
 138        4PY         0.02462  -0.00437   0.01509   0.00378  -0.00813
 139        4PZ         0.00004  -0.00004   0.00033   0.00006  -0.00009
 140        5D 0       -0.00422   0.00182  -0.01087  -0.00038  -0.00040
 141        5D+1        0.00000   0.00000  -0.00002  -0.00005   0.00010
 142        5D-1        0.00002   0.00000  -0.00003   0.00001  -0.00003
 143        5D+2       -0.00029   0.00072   0.00408  -0.00176  -0.00012
 144        5D-2        0.00362  -0.00096  -0.00004  -0.00245   0.00686
 145 9   C  1S         -0.01101   0.00734  -0.04048  -0.02628   0.06250
 146        2S         -0.01679   0.01128  -0.06228  -0.04070   0.09697
 147        2PX         0.01136  -0.00643   0.03392   0.00844  -0.00624
 148        2PY        -0.00215   0.00175  -0.01418  -0.00338   0.00459
 149        2PZ        -0.00004   0.00002  -0.00012  -0.00004   0.00005
 150        3S          0.04177  -0.02913   0.16225   0.10873  -0.26048
 151        3PX         0.01788  -0.01141   0.05644   0.01560  -0.01501
 152        3PY        -0.00348   0.00325  -0.02470  -0.00636   0.00940
 153        3PZ        -0.00005   0.00004  -0.00019  -0.00007   0.00010
 154        4S         -0.00058  -0.00837   0.04924   0.04650  -0.12179
 155        4PX        -0.00135  -0.00057   0.00095  -0.00076   0.00820
 156        4PY        -0.00282   0.00083  -0.00634   0.00055  -0.00146
 157        4PZ         0.00009  -0.00001   0.00000   0.00005  -0.00013
 158        5D 0       -0.00347   0.00185  -0.00808  -0.00230   0.00252
 159        5D+1       -0.00003   0.00002  -0.00008  -0.00003   0.00004
 160        5D-1        0.00001  -0.00001   0.00003   0.00001  -0.00001
 161        5D+2        0.00337  -0.00192   0.00908   0.00187  -0.00154
 162        5D-2       -0.00223   0.00150  -0.00934  -0.00222   0.00287
 163 10  H  1S         -0.00075   0.00507   0.00042   0.04864   0.04770
 164        2S         -0.00284   0.00300   0.00007   0.05811   0.05620
 165        3S         -0.00055   0.00099   0.00084  -0.00061   0.00443
 166        4PX        -0.00013  -0.00035  -0.00004   0.00250   0.00340
 167        4PY         0.00065  -0.00101  -0.00011  -0.01055  -0.00934
 168        4PZ         0.00000   0.00000   0.00000  -0.00002  -0.00001
 169 11  H  1S         -0.00156   0.00047   0.00006   0.04366   0.04973
 170        2S         -0.00183   0.00202   0.00022   0.05363   0.05995
 171        3S          0.00024  -0.00038   0.00012  -0.00019   0.00279
 172        4PX         0.00041  -0.00018   0.00000  -0.00665  -0.00617
 173        4PY         0.00008   0.00020   0.00001   0.00075   0.00091
 174        4PZ         0.00036  -0.00047  -0.00004  -0.00797  -0.00833
 175 12  H  1S         -0.00156   0.00047   0.00006   0.04368   0.04973
 176        2S         -0.00183   0.00202   0.00022   0.05365   0.05995
 177        3S          0.00024  -0.00038   0.00012  -0.00019   0.00279
 178        4PX         0.00041  -0.00018   0.00000  -0.00664  -0.00615
 179        4PY         0.00008   0.00019   0.00001   0.00073   0.00089
 180        4PZ        -0.00036   0.00048   0.00004   0.00798   0.00834
 181 13  H  1S          0.00768   0.06653   0.00184   0.01397  -0.02186
 182        2S          0.00750   0.06389   0.00157   0.01370  -0.01960
 183        3S          0.00139  -0.00553  -0.00258   0.00398  -0.00704
 184        4PX        -0.00135   0.00303   0.00105   0.00467  -0.00069
 185        4PY        -0.00189  -0.01717  -0.00058  -0.00112   0.00386
 186        4PZ         0.00000   0.00000   0.00000   0.00000   0.00000
 187 14  H  1S          0.00319   0.01667   0.00785  -0.03780   0.02327
 188        2S          0.00871   0.01953   0.00525  -0.04286   0.02775
 189        3S          0.00028  -0.00432  -0.00346   0.00114   0.00007
 190        4PX        -0.00139   0.00103  -0.00055   0.00131  -0.00349
 191        4PY         0.00149   0.00549   0.00247  -0.00758   0.00474
 192        4PZ         0.00000   0.00000   0.00000   0.00000   0.00000
 193 15  H  1S          0.00396  -0.00312   0.01868   0.01710  -0.04611
 194        2S          0.00566  -0.00403   0.02247   0.02105  -0.05626
 195        3S         -0.00042   0.00049  -0.00091   0.00093  -0.00423
 196        4PX         0.00111  -0.00072   0.00392   0.00218  -0.00487
 197        4PY         0.00055  -0.00028   0.00130   0.00100  -0.00264
 198        4PZ        -0.00118   0.00084  -0.00425  -0.00325   0.00802
 199 16  H  1S          0.01835  -0.00994   0.07294  -0.00023   0.01530
 200        2S          0.02642  -0.01035   0.07106  -0.00195   0.01639
 201        3S         -0.00118  -0.00026   0.00080   0.00217   0.00009
 202        4PX         0.00021   0.00019  -0.00181  -0.00205   0.00403
 203        4PY         0.00651  -0.00285   0.01721  -0.00030   0.00320
[...]
  53         V                 0.294391          1.343248
  54         V                 0.294879          0.909690
  55         V                 0.299014          0.909777
  56         V                 0.310475          1.253660
  57         V                 0.319566          1.667939
  58         V                 0.374249          1.725010
  59         V                 0.393000          1.641121
  60         V                 0.396724          1.379491
  61         V                 0.399184          2.299026
  62         V                 0.425199          2.098502
  63         V                 0.435210          2.006541
  64         V                 0.453121          1.348631
  65         V                 0.493017          1.797018
  66         V                 0.512417          1.912417
  67         V                 0.523102          1.918086
  68         V                 0.532322          1.683823
  69         V                 0.553685          2.015425
  70         V                 0.554304          1.821572
  71         V                 0.563447          1.903405
  72         V                 0.582405          2.233377
  73         V                 0.589593          2.027684
  74         V                 0.590181          1.592739
  75         V                 0.613049          2.139137
  76         V                 0.623141          2.402445
  77         V                 0.626611          1.980204
  78         V                 0.627647          2.224653
  79         V                 0.649661          3.012969
  80         V                 0.653903          2.396594
  81         V                 0.706708          2.008671
  82         V                 0.711349          2.139811
  83         V                 0.726582          2.262492
  84         V                 0.735205          2.048643
  85         V                 0.766476          2.375739
  86         V                 0.824399          2.170953
  87         V                 0.871097          2.165639
  88         V                 0.888087          2.502384
  89         V                 0.906642          1.888226
  90         V                 0.916937          2.530999
  91         V                 0.951621          2.116762
  92         V                 0.981056          1.937201
  93         V                 0.997076          2.340344
  94         V                 0.999294          2.284912
  95         V                 1.025933          1.887633
  96         V                 1.054687          2.539086
  97         V                 1.068893          2.002317
  98         V                 1.137625          2.147102
  99         V                 1.139938          2.308507
 100         V                 1.163885          2.741729
 101         V                 1.208191          2.703036
 102         V                 1.245952          2.274105
 103         V                 1.268588          2.440674
 104         V                 1.281376          2.261982
 105         V                 1.307096          2.336597
 106         V                 1.392894          2.321227
 107         V                 1.432483          2.107987
 108         V                 1.436320          2.344695
 109         V                 1.438520          2.117173
 110         V                 1.449325          2.688791
 111         V                 1.459892          2.611654
 112         V                 1.477817          2.804308
 113         V                 1.495085          2.658099
 114         V                 1.496518          2.331966
 115         V                 1.506479          2.286793
 116         V                 1.519565          2.637254
 117         V                 1.556902          2.947814
 118         V                 1.583103          2.568086
 119         V                 1.594427          3.328907
 120         V                 1.603998          3.125660
 121         V                 1.617501          3.297247
 122         V                 1.657598          3.103186
 123         V                 1.665801          2.882023
 124         V                 1.702698          3.289394
 125         V                 1.703288          2.694908
 126         V                 1.740690          2.985345
 127         V                 1.745140          2.881354
 128         V                 1.796121          3.205385
 129         V                 1.796744          2.903947
 130         V                 1.848836          3.218183
 131         V                 1.868123          3.368509
 132         V                 1.881634          3.408641
 133         V                 1.904256          2.955502
 134         V                 1.921539          3.449566
 135         V                 1.962527          3.449536
 136         V                 2.000120          3.286537
 137         V                 2.028938          3.274341
 138         V                 2.052917          3.663217
 139         V                 2.085460          3.494693
 140         V                 2.116788          3.642389
 141         V                 2.171809          3.583494
 142         V                 2.206852          3.803500
 143         V                 2.265537          4.032715
 144         V                 2.310756          3.833075
 145         V                 2.314461          4.288958
 146         V                 2.332968          3.982493
 147         V                 2.346241          4.059685
 148         V                 2.349039          4.007932
 149         V                 2.361279          3.951240
 150         V                 2.380662          4.114752
 151         V                 2.401542          4.400232
 152         V                 2.416386          3.728751
 153         V                 2.447080          3.997645
 154         V                 2.463164          4.632182
 155         V                 2.471413          4.429104
 156         V                 2.471967          4.479526
 157         V                 2.484730          4.476681
 158         V                 2.509452          3.933039
 159         V                 2.532387          4.466556
 160         V                 2.555784          4.293535
 161         V                 2.635859          4.521515
 162         V                 2.648400          4.144791
 163         V                 2.651351          5.640579
 164         V                 2.742407          5.506349
 165         V                 2.770704          4.674626
 166         V                 2.799342          4.677854
 167         V                 2.816752          4.680611
 168         V                 2.831622          4.475559
 169         V                 2.861012          5.514505
 170         V                 2.865319          4.830792
 171         V                 2.903915          4.843263
 172         V                 2.913577          4.588585
 173         V                 2.948183          4.809759
 174         V                 2.956106          5.043798
 175         V                 2.967359          5.315060
 176         V                 3.046427          6.338457
 177         V                 3.142199          6.264160
 178         V                 3.182109          5.721314
 179         V                 3.237205          5.483075
 180         V                 3.312497          6.927443
 181         V                 3.326207          5.161468
 182         V                 3.338097          5.155615
 183         V                 3.383940          6.635348
 184         V                 3.526762          5.509944
 185         V                 3.578089          6.711263
 186         V                 3.587396          6.778900
 187         V                 3.639760          6.039620
 188         V                 3.676227          7.339079
 189         V                 3.735432          6.688881
 190         V                 3.753226          7.649203
 191         V                 3.767577          6.722925
 192         V                 3.777729          7.154859
 193         V                 3.796740          6.609426
 194         V                 3.847917          6.566198
 195         V                 3.862194          8.173872
 196         V                 4.063639          7.538867
 197         V                 4.104919          7.493754
 198         V                 4.796374          9.480130
 199         V                 4.820310          9.303339
 200         V                 4.901546         11.708158
 201         V                 4.908319          9.641192
 202         V                 4.918869         11.714501
 203         V                 5.018192         10.964151
 204         V                 5.072379         11.325799
 205         V                 5.172361         10.794269
 206         V                 5.635733         11.806400
 207         V                 5.678624         11.728809
 208         V                23.738274         60.301666
 209         V                23.777721         60.293060
 210         V                23.873991         60.327512
 211         V                23.894864         60.323160
 212         V                23.903017         60.339339
 213         V                35.543074         89.004206
 214         V                35.585943         89.003142
 215         V                49.980207        123.697555
 216         V                50.004714        123.691944
 Total kinetic energy from orbitals= 4.543319513166D+02
                          Isotropic Fermi Contact Couplings
        Atom                 a.u.       MegaHertz       Gauss      10(-4) cm-1
     1  C(13)             -0.00364      -4.08750      -1.45852      -1.36344
     2  C(13)             -0.00257      -2.88966      -1.03110      -0.96389
     3  O(17)              0.00708      -4.29377      -1.53212      -1.43225
     4  N(14)             -0.00376      -1.21592      -0.43387      -0.40559
     5  C(13)              0.03760      42.27050      15.08316      14.09992
     6  C(13)             -0.02549     -28.65690     -10.22549      -9.55891
     7  O(17)              0.00757      -4.58973      -1.63773      -1.53097
     8  N(14)              0.00640       2.06633       0.73732       0.68925
     9  C(13)             -0.00344      -3.86574      -1.37939      -1.28947
    10  H(1)              -0.00002      -0.07437      -0.02654      -0.02481
    11  H(1)               0.00172       7.70420       2.74905       2.56984
    12  H(1)               0.00173       7.73644       2.76055       2.58060
    13  H(1)              -0.00204      -9.13577      -3.25987      -3.04737
    14  H(1)              -0.01012     -45.22640     -16.13790     -15.08590
    15  H(1)               0.00261      11.65654       4.15934       3.88820
    16  H(1)              -0.00123      -5.50492      -1.96429      -1.83624
    17  H(1)               0.00259      11.59365       4.13690       3.86723
    18  H(1)               0.00009       0.39348       0.14040       0.13125
 --------------------------------------------------------
       Center         ----  Spin Dipole Couplings  ----
                      3XX-RR        3YY-RR        3ZZ-RR
 --------------------------------------------------------
     1   Atom        0.004186     -0.001627     -0.002559
     2   Atom       -0.018820     -0.026803      0.045624
     3   Atom       -0.190460     -0.197858      0.388318
     4   Atom       -0.150026     -0.163231      0.313257
     5   Atom       -0.403974     -0.404578      0.808552
     6   Atom        0.005747     -0.001821     -0.003926
     7   Atom       -0.207030     -0.194734      0.401765
     8   Atom       -0.092824     -0.107203      0.200027
     9   Atom        0.004701     -0.003438     -0.001263
    10   Atom        0.001718      0.001303     -0.003021
    11   Atom        0.003241     -0.001208     -0.002033
    12   Atom        0.003241     -0.001209     -0.002033
    13   Atom       -0.010238      0.020231     -0.009993
    14   Atom       -0.045593      0.048823     -0.003230
    15   Atom        0.003618     -0.001960     -0.001658
    16   Atom       -0.000438      0.008069     -0.007631
    17   Atom        0.003645     -0.001966     -0.001679
    18   Atom        0.004044     -0.001023     -0.003021
 --------------------------------------------------------
                        XY            XZ            YZ
 --------------------------------------------------------
     1   Atom        0.002635      0.000001      0.000004
     2   Atom       -0.006000     -0.000062      0.000028
     3   Atom       -0.002399     -0.000328      0.000139
     4   Atom        0.007961     -0.000330     -0.000109
     5   Atom       -0.003637     -0.000527     -0.000557
     6   Atom       -0.011915      0.000128      0.000084
     7   Atom       -0.001727      0.000061     -0.000138
     8   Atom       -0.000646      0.000557      0.000335
     9   Atom       -0.000738     -0.000049      0.000035
    10   Atom        0.004556      0.000006      0.000005
    11   Atom        0.001976      0.001455      0.000677
    12   Atom        0.001980     -0.001454     -0.000678
    13   Atom       -0.002215     -0.000005      0.000010
    14   Atom       -0.018212     -0.000026      0.000004
    15   Atom       -0.000039     -0.001617     -0.000110
    16   Atom        0.003443      0.000001     -0.000060
    17   Atom       -0.000039      0.001594      0.000103
    18   Atom       -0.002357     -0.000014      0.000007
 --------------------------------------------------------


 ---------------------------------------------------------------------------------
              Anisotropic Spin Dipole Couplings in Principal Axis System
 ---------------------------------------------------------------------------------

       Atom             a.u.   MegaHertz   Gauss  10(-4) cm-1        Axes

              Baa    -0.0026    -0.355    -0.127    -0.118 -0.3597  0.9321 -0.0425
     1 C(13)  Bbb    -0.0026    -0.343    -0.123    -0.115 -0.0156  0.0395  0.9991
              Bcc     0.0052     0.698     0.249     0.233  0.9329  0.3600  0.0004
 
              Baa    -0.0300    -4.028    -1.437    -1.344  0.4723  0.8814  0.0001
     2 C(13)  Bbb    -0.0156    -2.094    -0.747    -0.699  0.8814 -0.4723  0.0011
              Bcc     0.0456     6.122     2.185     2.042 -0.0010  0.0005  1.0000
 
              Baa    -0.1986    14.368     5.127     4.793  0.2837  0.9589 -0.0001
     3 O(17)  Bbb    -0.1898    13.730     4.899     4.580  0.9589 -0.2837  0.0006
              Bcc     0.3883   -28.098   -10.026    -9.373 -0.0006  0.0002  1.0000
 
              Baa    -0.1670    -6.440    -2.298    -2.148 -0.4252  0.9051 -0.0001
     4 N(14)  Bbb    -0.1463    -5.642    -2.013    -1.882  0.9051  0.4252  0.0008
              Bcc     0.3133    12.082     4.311     4.030 -0.0007 -0.0002  1.0000
 
              Baa    -0.4079   -54.740   -19.533   -18.259  0.6772  0.7358  0.0006
     5 C(13)  Bbb    -0.4006   -53.760   -19.183   -17.932  0.7358 -0.6772  0.0000
              Bcc     0.8086   108.500    38.715    36.192 -0.0004 -0.0005  1.0000
 
              Baa    -0.0105    -1.415    -0.505    -0.472  0.5904  0.8068 -0.0216
     6 C(13)  Bbb    -0.0039    -0.526    -0.188    -0.176  0.0104  0.0192  0.9998
              Bcc     0.0145     1.941     0.693     0.647  0.8071 -0.5905  0.0029
 
              Baa    -0.2073    14.998     5.352     5.003  0.9906  0.1365 -0.0001
     7 O(17)  Bbb    -0.1945    14.074     5.022     4.694 -0.1365  0.9906  0.0002
              Bcc     0.4018   -29.071   -10.373    -9.697  0.0001 -0.0002  1.0000
 
              Baa    -0.1072    -4.136    -1.476    -1.380  0.0448  0.9990 -0.0012
     8 N(14)  Bbb    -0.0928    -3.579    -1.277    -1.194  0.9990 -0.0448 -0.0019
              Bcc     0.2000     7.715     2.753     2.573  0.0019  0.0011  1.0000
 
              Baa    -0.0035    -0.470    -0.168    -0.157  0.0895  0.9959 -0.0137
     9 C(13)  Bbb    -0.0013    -0.170    -0.060    -0.057  0.0098  0.0129  0.9999
              Bcc     0.0048     0.640     0.228     0.213  0.9959 -0.0897 -0.0086
 
              Baa    -0.0031    -1.627    -0.581    -0.543 -0.6908  0.7229  0.0147
    10 H(1)   Bbb    -0.0030    -1.612    -0.575    -0.538  0.0095 -0.0112  0.9999
              Bcc     0.0061     3.239     1.156     1.080  0.7230  0.6908  0.0008
 
              Baa    -0.0025    -1.311    -0.468    -0.437 -0.1414 -0.2892  0.9468
    11 H(1)   Bbb    -0.0019    -1.032    -0.368    -0.344 -0.4002  0.8914  0.2125
              Bcc     0.0044     2.343     0.836     0.781  0.9055  0.3488  0.2418
 
              Baa    -0.0025    -1.311    -0.468    -0.437  0.1403  0.2912  0.9463
    12 H(1)   Bbb    -0.0019    -1.033    -0.369    -0.345 -0.4009  0.8906 -0.2146
              Bcc     0.0044     2.344     0.836     0.782  0.9053  0.3493 -0.2417
 
              Baa    -0.0104    -5.548    -1.980    -1.851  0.9973  0.0721  0.0114
    13 H(1)   Bbb    -0.0100    -5.332    -1.903    -1.779 -0.0113 -0.0012  0.9999
              Bcc     0.0204    10.880     3.882     3.629 -0.0721  0.9974  0.0003
 
              Baa    -0.0490   -26.136    -9.326    -8.718  0.9831  0.1831  0.0005
    14 H(1)   Bbb    -0.0032    -1.723    -0.615    -0.575 -0.0005 -0.0002  1.0000
              Bcc     0.0522    27.859     9.941     9.293 -0.1831  0.9831  0.0001
 
              Baa    -0.0022    -1.161    -0.414    -0.387  0.2397  0.4730  0.8478
    15 H(1)   Bbb    -0.0019    -1.012    -0.361    -0.338 -0.1273  0.8811 -0.4555
              Bcc     0.0041     2.174     0.776     0.725  0.9625 -0.0013 -0.2714
 
              Baa    -0.0076    -4.072    -1.453    -1.358 -0.0021  0.0043  1.0000
    16 H(1)   Bbb    -0.0017    -0.884    -0.315    -0.295  0.9427 -0.3337  0.0034
              Bcc     0.0093     4.956     1.768     1.653  0.3337  0.9427 -0.0033
 
              Baa    -0.0022    -1.162    -0.414    -0.387 -0.2373 -0.4603  0.8554
    17 H(1)   Bbb    -0.0019    -1.019    -0.363    -0.340 -0.1212  0.8877  0.4441
              Bcc     0.0041     2.180     0.778     0.727  0.9638 -0.0017  0.2665
 
              Baa    -0.0030    -1.612    -0.575    -0.538  0.0013 -0.0019  1.0000
    18 H(1)   Bbb    -0.0020    -1.041    -0.371    -0.347  0.3660  0.9306  0.0012
              Bcc     0.0050     2.653     0.946     0.885  0.9306 -0.3660 -0.0019
 

 ---------------------------------------------------------------------------------


 Test job not archived.
 1\1\GINC-KADET27\SP\UB3LYP\6-311G(d,p)\C5H9N2O2(2)\MDOROHUN\15-Apr-202
 6\0\\# UB3LYP/6-311G(d,p) GFInput Pop=Full IOP(6/80=1)\\gly_3 rodnik\\
 0,2\C,0,4.47783,-2.77029,4.918818\C,0,3.253861,-3.494438,4.392541\O,0,
 2.636285,-3.13454,3.400879\N,0,2.869717,-4.61176,5.119006\C,0,1.799228
 ,-5.402201,4.817102\C,0,1.57382,-6.525357,5.710405\O,0,2.32456,-6.7271
 61,6.67875\N,0,0.49895,-7.324274,5.414207\C,0,0.14759,-8.485846,6.2065
 65\H,0,4.906937,-3.229563,5.814245\H,0,5.239595,-2.742719,4.133085\H,0
 ,4.207528,-1.733888,5.145273\H,0,3.382202,-4.913689,5.944848\H,0,1.210
 801,-5.135759,3.949833\H,0,0.18945,-9.404997,5.608964\H,0,-0.061191,-7
 .098168,4.604923\H,0,-0.858792,-8.389133,6.632521\H,0,0.872449,-8.5560
 98,7.018583\\Version=ES64L-G09RevD.01\State=2-A\HF=-456.0306152\S2=0.7
 54531\S2-1=0.\S2A=0.750016\RMSD=6.239e-09\Dipole=-0.3349086,-0.4174977
 ,0.0666881\Quadrupole=6.6339263,0.1327567,-6.766683,7.4199449,0.712846
 2,6.2007308\PG=C01 [X(C5H9N2O2)]\\@


 I WANT TO KNOW HOW GOD CREATED THE WORLD.  I AM NOT INTERESTED IN
 THIS OR THAT PHENOMENON, IN THE SPECTRUM OF THIS OR THAT ELEMENT.
 I WANT TO KNOW HIS THOUGHTS, THE REST ARE DETAILS.
     -- ALBERT EINSTEIN
 Job cpu time:       0 days  0 hours  0 minutes 38.5 seconds.
 File lengths (MBytes):  RWF=     46 Int=      0 D2E=      0 Chk=      3 Scr=      1
 Normal termination of Gaussian 09 at Wed Apr 15 13:18:33 2026.
