 Entering Gaussian System, Link 0=/opt/g09/g09/g09
 Input=gly_3.inp
 Output=gly_3.log
 Initial command:
 /opt/g09/g09/l1.exe "/tmp/Gau-5593.inp" -scrdir="/tmp/"
 Entering Link 1 = /opt/g09/g09/l1.exe PID=      5595.
  
 Copyright (c) 1988,1990,1992,1993,1995,1998,2003,2009,2013,
            Gaussian, Inc.  All Rights Reserved.
  
 This is part of the Gaussian(R) 09 program.  It is based on
 the Gaussian(R) 03 system (copyright 2003, Gaussian, Inc.),
 the Gaussian(R) 98 system (copyright 1998, Gaussian, Inc.),
 the Gaussian(R) 94 system (copyright 1995, Gaussian, Inc.),
 the Gaussian 92(TM) system (copyright 1992, Gaussian, Inc.),
 the Gaussian 90(TM) system (copyright 1990, Gaussian, Inc.),
 the Gaussian 88(TM) system (copyright 1988, Gaussian, Inc.),
 the Gaussian 86(TM) system (copyright 1986, Carnegie Mellon
 University), and the Gaussian 82(TM) system (copyright 1983,
 Carnegie Mellon University). Gaussian is a federally registered
 trademark of Gaussian, Inc.
  
 This software contains proprietary and confidential information,
 including trade secrets, belonging to Gaussian, Inc.
  
 This software is provided under written license and may be
 used, copied, transmitted, or stored only in accord with that
 written license.
  
 The following legend is applicable only to US Government
 contracts under FAR:
  
                    RESTRICTED RIGHTS LEGEND
  
 Use, reproduction and disclosure by the US Government is
 subject to restrictions as set forth in subparagraphs (a)
 and (c) of the Commercial Computer Software - Restricted
 Rights clause in FAR 52.227-19.
  
 Gaussian, Inc.
 340 Quinnipiac St., Bldg. 40, Wallingford CT 06492
  
  
 ---------------------------------------------------------------
 Warning -- This program may not be used in any manner that
 competes with the business of Gaussian, Inc. or will provide
 assistance to any competitor of Gaussian, Inc.  The licensee
 of this program is prohibited from giving any competitor of
 Gaussian, Inc. access to this program.  By using this program,
 the user acknowledges that Gaussian, Inc. is engaged in the
 business of creating and licensing software in the field of
 computational chemistry and represents and warrants to the
 licensee that it is not a competitor of Gaussian, Inc. and that
 it will not use this program in any manner prohibited above.
 ---------------------------------------------------------------
  

 Cite this work as:
 Gaussian 09, Revision D.01,
 M. J. Frisch, G. W. Trucks, H. B. Schlegel, G. E. Scuseria, 
 M. A. Robb, J. R. Cheeseman, G. Scalmani, V. Barone, B. Mennucci, 
 G. A. Petersson, H. Nakatsuji, M. Caricato, X. Li, H. P. Hratchian, 
 A. F. Izmaylov, J. Bloino, G. Zheng, J. L. Sonnenberg, M. Hada, 
 M. Ehara, K. Toyota, R. Fukuda, J. Hasegawa, M. Ishida, T. Nakajima, 
 Y. Honda, O. Kitao, H. Nakai, T. Vreven, J. A. Montgomery, Jr., 
 J. E. Peralta, F. Ogliaro, M. Bearpark, J. J. Heyd, E. Brothers, 
 K. N. Kudin, V. N. Staroverov, T. Keith, R. Kobayashi, J. Normand, 
 K. Raghavachari, A. Rendell, J. C. Burant, S. S. Iyengar, J. Tomasi, 
 M. Cossi, N. Rega, J. M. Millam, M. Klene, J. E. Knox, J. B. Cross, 
 V. Bakken, C. Adamo, J. Jaramillo, R. Gomperts, R. E. Stratmann, 
 O. Yazyev, A. J. Austin, R. Cammi, C. Pomelli, J. W. Ochterski, 
 R. L. Martin, K. Morokuma, V. G. Zakrzewski, G. A. Voth, 
 P. Salvador, J. J. Dannenberg, S. Dapprich, A. D. Daniels, 
 O. Farkas, J. B. Foresman, J. V. Ortiz, J. Cioslowski, 
 and D. J. Fox, Gaussian, Inc., Wallingford CT, 2013.
 
 ******************************************
 Gaussian 09:  ES64L-G09RevD.01 24-Apr-2013
                15-Apr-2026 
 ******************************************
 ------------------------------------------------
 # B3LYP/6-311G(d,p) GFInput Pop=Full IOP(6/80=1)
 ------------------------------------------------
 1/38=1/1;
 2/12=2,17=6,18=5,40=1/2;
 3/5=4,6=6,7=101,11=2,16=1,24=10,25=1,30=1,74=-5/1,2,3;
 4//1;
 5/5=2,38=5/2;
 6/7=3,28=1,80=1/1;
 99/5=1,9=1/99;
 --------------------------------------
 gly_3 zamkniętopowłokowa cząsteczka
 --------------------------------------
 Symbolic Z-matrix:
 Charge =  0 Multiplicity = 1
 H                     4.49868  -2.78053   4.92385 
 C                     3.64925  -3.32802   4.50392 
 C                     3.13809  -2.74954   3.1929 
 N                     3.79978  -1.65105   2.73679 
 O                     2.19157  -3.23798   2.58305 
 H                     2.83179  -3.33048   5.23163 
 H                     3.9423   -4.36968   4.34008 
 C                     3.42114  -1.00156   1.5082 
 C                     4.35436   0.19165   1.28075 
 N                     4.10379   0.89775   0.14616 
 O                     5.25019   0.46922   2.07337 
 H                     4.58294  -1.23184   3.22396 
 H                     2.37618  -0.66286   1.54995 
 H                     3.48419  -1.6989    0.66076 
 C                     4.87722   2.0632   -0.24835 
 H                     4.2424    2.95427  -0.31476 
 H                     3.3446    0.59682  -0.44931 
 H                     5.36669   1.90316  -1.21595 
 H                     5.63911   2.22351   0.51516 
 
                          Input orientation:                          
 ---------------------------------------------------------------------
 Center     Atomic      Atomic             Coordinates (Angstroms)
 Number     Number       Type             X           Y           Z
 ---------------------------------------------------------------------
      1          1           0        4.498682   -2.780529    4.923845
      2          6           0        3.649245   -3.328024    4.503921
      3          6           0        3.138090   -2.749538    3.192902
      4          7           0        3.799782   -1.651049    2.736786
      5          8           0        2.191570   -3.237975    2.583051
      6          1           0        2.831793   -3.330484    5.231625
      7          1           0        3.942301   -4.369678    4.340075
      8          6           0        3.421142   -1.001561    1.508203
      9          6           0        4.354357    0.191647    1.280749
     10          7           0        4.103785    0.897747    0.146156
     11          8           0        5.250190    0.469218    2.073373
     12          1           0        4.582940   -1.231836    3.223959
     13          1           0        2.376179   -0.662860    1.549951
     14          1           0        3.484190   -1.698899    0.660758
     15          6           0        4.877223    2.063198   -0.248354
     16          1           0        4.242401    2.954268   -0.314759
     17          1           0        3.344602    0.596818   -0.449307
     18          1           0        5.366690    1.903161   -1.215946
     19          1           0        5.639110    2.223515    0.515162
 ---------------------------------------------------------------------
                    Distance matrix (angstroms):
                    1          2          3          4          5
     1  H    0.000000
     2  C    1.094363   0.000000
     3  C    2.201893   1.521413   0.000000
     4  N    2.558791   2.440834   1.361086   0.000000
     5  O    3.318334   2.413020   1.227350   2.264578   0.000000
     6  H    1.782049   1.094435   2.141893   3.159387   2.726424
     7  H    1.782061   1.094427   2.141872   3.159397   2.726343
     8  C    3.999054   3.799840   2.444126   1.440354   2.769241
     9  C    4.703914   4.824324   3.712978   2.413115   4.258632
    10  N    6.042514   6.087188   4.849527   3.646936   5.167129
    11  O    4.387575   4.784311   4.009327   2.653174   4.833033
    12  H    2.301122   2.627564   2.095704   1.013121   3.186535
    13  H    4.513613   4.177288   2.762973   2.100414   2.780754
    14  H    4.513649   4.177463   2.763219   2.100424   2.781157
    15  C    7.096240   7.290907   6.166786   4.885445   6.582706
    16  H    7.771522   7.939692   6.786501   5.542272   7.137723
    17  H    6.450514   6.327058   4.950397   3.925721   5.022979
    18  H    7.770935   7.939256   6.786178   5.541814   7.137580
    19  H    6.765909   7.119645   6.177107   4.830216   6.781561
                    6          7          8          9         10
     6  H    0.000000
     7  H    1.762956   0.000000
     8  C    4.431150   4.431176   0.000000
     9  C    5.507543   5.507717   1.531787   0.000000
    10  N    6.734827   6.735043   2.434860   1.359656   0.000000
    11  O    5.500994   5.501220   2.414130   1.227931   2.282991
    12  H    3.391395   3.391487   2.084855   2.419632   3.773272
    13  H    4.569303   4.896737   1.099277   2.171599   2.718595
    14  H    4.896991   4.569497   1.099281   2.171576   2.718692
    15  C    7.956492   7.956736   3.820787   2.472701   1.453314
    16  H    8.500018   8.683186   4.432408   3.192218   2.112093
    17  H    6.925292   6.925425   2.528343   2.043737   1.010690
    18  H    8.682621   8.499810   4.432105   3.191800   2.112134
    19  H    7.808518   7.808925   4.038147   2.522935   2.061807
                   11         12         13         14         15
    11  O    0.000000
    12  H    2.159318   0.000000
    13  H    3.132971   2.827690   0.000000
    14  H    3.132885   2.827614   1.758331   0.000000
    15  C    2.840826   4.795916   4.113455   4.113441   0.000000
    16  H    3.590862   5.491990   4.477002   4.814403   1.096090
    17  H    3.164089   4.286063   2.553755   2.553830   2.130629
    18  H    3.590179   5.491377   4.814333   4.476680   1.096095
    19  H    2.378411   4.515809   4.477574   4.477746   1.090472
                   16         17         18         19
    16  H    0.000000
    17  H    2.526206   0.000000
    18  H    1.783533   2.526481   0.000000
    19  H    1.781450   2.973401   1.781453   0.000000
 Stoichiometry    C5H10N2O2
 Framework group  C1[X(C5H10N2O2)]
 Deg. of freedom    51
 Full point group                 C1      NOp   1
 Largest Abelian subgroup         C1      NOp   1
 Largest concise Abelian subgroup C1      NOp   1
                         Standard orientation:                         
 ---------------------------------------------------------------------
 Center     Atomic      Atomic             Coordinates (Angstroms)
 Number     Number       Type             X           Y           Z
 ---------------------------------------------------------------------
      1          1           0       -2.999511    1.924863    0.000051
      2          6           0       -3.406286    0.908908   -0.000113
      3          6           0       -2.339427   -0.175762   -0.000032
      4          7           0       -1.051813    0.265379    0.000188
      5          8           0       -2.616892   -1.371338   -0.000111
      6          1           0       -4.041744    0.779466   -0.881716
      7          1           0       -4.042039    0.779271    0.881240
      8          6           0        0.057613   -0.653203    0.000225
      9          6           0        1.358781    0.155087    0.000053
     10          7           0        2.491813   -0.596512   -0.000118
     11          8           0        1.354477    1.383011    0.000027
     12          1           0       -0.800544    1.246846    0.000180
     13          1           0        0.020704   -1.312194   -0.878853
     14          1           0        0.020840   -1.311974    0.879479
     15          6           0        3.825361   -0.018783   -0.000112
     16          1           0        4.386677   -0.321408   -0.891602
     17          1           0        2.400738   -1.603090    0.000056
     18          1           0        4.386320   -0.320463    0.891930
     19          1           0        3.711632    1.065743   -0.000709
 ---------------------------------------------------------------------
 Rotational constants (GHZ):      5.0226621      0.6736790      0.6006810
 Standard basis: 6-311G(d,p) (5D, 7F)
 AO basis set in the form of general basis input (Overlap normalization):
      1 0
 S   3 1.00       0.000000000000
      0.3386500000D+02  0.2549381454D-01
      0.5094790000D+01  0.1903731086D+00
      0.1158790000D+01  0.8521614860D+00
 S   1 1.00       0.000000000000
      0.3258400000D+00  0.1000000000D+01
 S   1 1.00       0.000000000000
      0.1027410000D+00  0.1000000000D+01
 P   1 1.00       0.000000000000
      0.7500000000D+00  0.1000000000D+01
 ****
      2 0
 S   6 1.00       0.000000000000
      0.4563240000D+04  0.1966650249D-02
      0.6820240000D+03  0.1523060193D-01
      0.1549730000D+03  0.7612690966D-01
      0.4445530000D+02  0.2608010331D+00
      0.1302900000D+02  0.6164620782D+00
      0.1827730000D+01  0.2210060280D+00
 SP   3 1.00       0.000000000000
      0.2096420000D+02  0.1146600807D+00  0.4024869267D-01
      0.4803310000D+01  0.9199996477D+00  0.2375939567D+00
      0.1459330000D+01 -0.3030682134D-02  0.8158538515D+00
 SP   1 1.00       0.000000000000
      0.4834560000D+00  0.1000000000D+01  0.1000000000D+01
 SP   1 1.00       0.000000000000
      0.1455850000D+00  0.1000000000D+01  0.1000000000D+01
 D   1 1.00       0.000000000000
      0.6260000000D+00  0.1000000000D+01
 ****
      3 0
 S   6 1.00       0.000000000000
      0.4563240000D+04  0.1966650249D-02
      0.6820240000D+03  0.1523060193D-01
      0.1549730000D+03  0.7612690966D-01
      0.4445530000D+02  0.2608010331D+00
      0.1302900000D+02  0.6164620782D+00
      0.1827730000D+01  0.2210060280D+00
 SP   3 1.00       0.000000000000
      0.2096420000D+02  0.1146600807D+00  0.4024869267D-01
      0.4803310000D+01  0.9199996477D+00  0.2375939567D+00
      0.1459330000D+01 -0.3030682134D-02  0.8158538515D+00
 SP   1 1.00       0.000000000000
      0.4834560000D+00  0.1000000000D+01  0.1000000000D+01
 SP   1 1.00       0.000000000000
      0.1455850000D+00  0.1000000000D+01  0.1000000000D+01
 D   1 1.00       0.000000000000
      0.6260000000D+00  0.1000000000D+01
 ****
      4 0
 S   6 1.00       0.000000000000
      0.6293480000D+04  0.1969788147D-02
      0.9490440000D+03  0.1496128592D-01
      0.2187760000D+03  0.7350053084D-01
      0.6369160000D+02  0.2489367658D+00
      0.1882820000D+02  0.6024594331D+00
      0.2720230000D+01  0.2562017589D+00
 SP   3 1.00       0.000000000000
      0.3063310000D+02  0.1119060795D+00  0.3831191864D-01
      0.7026140000D+01  0.9216666549D+00  0.2374031155D+00
      0.2112050000D+01 -0.2569191826D-02  0.8175923978D+00
 SP   1 1.00       0.000000000000
      0.6840090000D+00  0.1000000000D+01  0.1000000000D+01
 SP   1 1.00       0.000000000000
      0.2008780000D+00  0.1000000000D+01  0.1000000000D+01
 D   1 1.00       0.000000000000
      0.9130000000D+00  0.1000000000D+01
 ****
      5 0
 S   6 1.00       0.000000000000
      0.8588500000D+04  0.1895150083D-02
      0.1297230000D+04  0.1438590063D-01
      0.2992960000D+03  0.7073200310D-01
      0.8737710000D+02  0.2400010105D+00
      0.2567890000D+02  0.5947970261D+00
      0.3740040000D+01  0.2808020123D+00
 SP   3 1.00       0.000000000000
      0.4211750000D+02  0.1138890124D+00  0.3651139738D-01
      0.9628370000D+01  0.9208111006D+00  0.2371529830D+00
      0.2853320000D+01 -0.3274470358D-02  0.8197019412D+00
 SP   1 1.00       0.000000000000
      0.9056610000D+00  0.1000000000D+01  0.1000000000D+01
 SP   1 1.00       0.000000000000
      0.2556110000D+00  0.1000000000D+01  0.1000000000D+01
 D   1 1.00       0.000000000000
      0.1292000000D+01  0.1000000000D+01
 ****
      6 0
 S   3 1.00       0.000000000000
      0.3386500000D+02  0.2549381454D-01
      0.5094790000D+01  0.1903731086D+00
      0.1158790000D+01  0.8521614860D+00
 S   1 1.00       0.000000000000
      0.3258400000D+00  0.1000000000D+01
 S   1 1.00       0.000000000000
      0.1027410000D+00  0.1000000000D+01
 P   1 1.00       0.000000000000
      0.7500000000D+00  0.1000000000D+01
 ****
      7 0
 S   3 1.00       0.000000000000
      0.3386500000D+02  0.2549381454D-01
      0.5094790000D+01  0.1903731086D+00
      0.1158790000D+01  0.8521614860D+00
 S   1 1.00       0.000000000000
      0.3258400000D+00  0.1000000000D+01
 S   1 1.00       0.000000000000
      0.1027410000D+00  0.1000000000D+01
 P   1 1.00       0.000000000000
      0.7500000000D+00  0.1000000000D+01
 ****
      8 0
 S   6 1.00       0.000000000000
      0.4563240000D+04  0.1966650249D-02
      0.6820240000D+03  0.1523060193D-01
      0.1549730000D+03  0.7612690966D-01
      0.4445530000D+02  0.2608010331D+00
      0.1302900000D+02  0.6164620782D+00
      0.1827730000D+01  0.2210060280D+00
 SP   3 1.00       0.000000000000
      0.2096420000D+02  0.1146600807D+00  0.4024869267D-01
      0.4803310000D+01  0.9199996477D+00  0.2375939567D+00
      0.1459330000D+01 -0.3030682134D-02  0.8158538515D+00
 SP   1 1.00       0.000000000000
      0.4834560000D+00  0.1000000000D+01  0.1000000000D+01
 SP   1 1.00       0.000000000000
      0.1455850000D+00  0.1000000000D+01  0.1000000000D+01
 D   1 1.00       0.000000000000
      0.6260000000D+00  0.1000000000D+01
 ****
      9 0
 S   6 1.00       0.000000000000
      0.4563240000D+04  0.1966650249D-02
      0.6820240000D+03  0.1523060193D-01
      0.1549730000D+03  0.7612690966D-01
      0.4445530000D+02  0.2608010331D+00
      0.1302900000D+02  0.6164620782D+00
      0.1827730000D+01  0.2210060280D+00
 SP   3 1.00       0.000000000000
      0.2096420000D+02  0.1146600807D+00  0.4024869267D-01
      0.4803310000D+01  0.9199996477D+00  0.2375939567D+00
      0.1459330000D+01 -0.3030682134D-02  0.8158538515D+00
 SP   1 1.00       0.000000000000
      0.4834560000D+00  0.1000000000D+01  0.1000000000D+01
 SP   1 1.00       0.000000000000
      0.1455850000D+00  0.1000000000D+01  0.1000000000D+01
 D   1 1.00       0.000000000000
      0.6260000000D+00  0.1000000000D+01
 ****
     10 0
 S   6 1.00       0.000000000000
      0.6293480000D+04  0.1969788147D-02
      0.9490440000D+03  0.1496128592D-01
      0.2187760000D+03  0.7350053084D-01
      0.6369160000D+02  0.2489367658D+00
      0.1882820000D+02  0.6024594331D+00
      0.2720230000D+01  0.2562017589D+00
 SP   3 1.00       0.000000000000
      0.3063310000D+02  0.1119060795D+00  0.3831191864D-01
      0.7026140000D+01  0.9216666549D+00  0.2374031155D+00
      0.2112050000D+01 -0.2569191826D-02  0.8175923978D+00
 SP   1 1.00       0.000000000000
      0.6840090000D+00  0.1000000000D+01  0.1000000000D+01
 SP   1 1.00       0.000000000000
      0.2008780000D+00  0.1000000000D+01  0.1000000000D+01
 D   1 1.00       0.000000000000
      0.9130000000D+00  0.1000000000D+01
 ****
     11 0
 S   6 1.00       0.000000000000
      0.8588500000D+04  0.1895150083D-02
      0.1297230000D+04  0.1438590063D-01
      0.2992960000D+03  0.7073200310D-01
      0.8737710000D+02  0.2400010105D+00
      0.2567890000D+02  0.5947970261D+00
      0.3740040000D+01  0.2808020123D+00
 SP   3 1.00       0.000000000000
      0.4211750000D+02  0.1138890124D+00  0.3651139738D-01
      0.9628370000D+01  0.9208111006D+00  0.2371529830D+00
      0.2853320000D+01 -0.3274470358D-02  0.8197019412D+00
 SP   1 1.00       0.000000000000
      0.9056610000D+00  0.1000000000D+01  0.1000000000D+01
 SP   1 1.00       0.000000000000
      0.2556110000D+00  0.1000000000D+01  0.1000000000D+01
 D   1 1.00       0.000000000000
      0.1292000000D+01  0.1000000000D+01
 ****
     12 0
 S   3 1.00       0.000000000000
      0.3386500000D+02  0.2549381454D-01
      0.5094790000D+01  0.1903731086D+00
      0.1158790000D+01  0.8521614860D+00
 S   1 1.00       0.000000000000
      0.3258400000D+00  0.1000000000D+01
 S   1 1.00       0.000000000000
      0.1027410000D+00  0.1000000000D+01
 P   1 1.00       0.000000000000
      0.7500000000D+00  0.1000000000D+01
 ****
     13 0
 S   3 1.00       0.000000000000
      0.3386500000D+02  0.2549381454D-01
      0.5094790000D+01  0.1903731086D+00
      0.1158790000D+01  0.8521614860D+00
 S   1 1.00       0.000000000000
      0.3258400000D+00  0.1000000000D+01
 S   1 1.00       0.000000000000
      0.1027410000D+00  0.1000000000D+01
 P   1 1.00       0.000000000000
      0.7500000000D+00  0.1000000000D+01
 ****
     14 0
 S   3 1.00       0.000000000000
      0.3386500000D+02  0.2549381454D-01
      0.5094790000D+01  0.1903731086D+00
      0.1158790000D+01  0.8521614860D+00
 S   1 1.00       0.000000000000
      0.3258400000D+00  0.1000000000D+01
 S   1 1.00       0.000000000000
      0.1027410000D+00  0.1000000000D+01
 P   1 1.00       0.000000000000
      0.7500000000D+00  0.1000000000D+01
 ****
     15 0
 S   6 1.00       0.000000000000
      0.4563240000D+04  0.1966650249D-02
      0.6820240000D+03  0.1523060193D-01
      0.1549730000D+03  0.7612690966D-01
      0.4445530000D+02  0.2608010331D+00
      0.1302900000D+02  0.6164620782D+00
      0.1827730000D+01  0.2210060280D+00
 SP   3 1.00       0.000000000000
      0.2096420000D+02  0.1146600807D+00  0.4024869267D-01
      0.4803310000D+01  0.9199996477D+00  0.2375939567D+00
      0.1459330000D+01 -0.3030682134D-02  0.8158538515D+00
 SP   1 1.00       0.000000000000
      0.4834560000D+00  0.1000000000D+01  0.1000000000D+01
 SP   1 1.00       0.000000000000
      0.1455850000D+00  0.1000000000D+01  0.1000000000D+01
 D   1 1.00       0.000000000000
      0.6260000000D+00  0.1000000000D+01
 ****
     16 0
 S   3 1.00       0.000000000000
      0.3386500000D+02  0.2549381454D-01
      0.5094790000D+01  0.1903731086D+00
      0.1158790000D+01  0.8521614860D+00
 S   1 1.00       0.000000000000
      0.3258400000D+00  0.1000000000D+01
 S   1 1.00       0.000000000000
      0.1027410000D+00  0.1000000000D+01
 P   1 1.00       0.000000000000
      0.7500000000D+00  0.1000000000D+01
 ****
     17 0
 S   3 1.00       0.000000000000
      0.3386500000D+02  0.2549381454D-01
      0.5094790000D+01  0.1903731086D+00
      0.1158790000D+01  0.8521614860D+00
 S   1 1.00       0.000000000000
      0.3258400000D+00  0.1000000000D+01
 S   1 1.00       0.000000000000
      0.1027410000D+00  0.1000000000D+01
 P   1 1.00       0.000000000000
      0.7500000000D+00  0.1000000000D+01
 ****
     18 0
 S   3 1.00       0.000000000000
      0.3386500000D+02  0.2549381454D-01
      0.5094790000D+01  0.1903731086D+00
      0.1158790000D+01  0.8521614860D+00
 S   1 1.00       0.000000000000
      0.3258400000D+00  0.1000000000D+01
 S   1 1.00       0.000000000000
      0.1027410000D+00  0.1000000000D+01
 P   1 1.00       0.000000000000
      0.7500000000D+00  0.1000000000D+01
 ****
     19 0
 S   3 1.00       0.000000000000
      0.3386500000D+02  0.2549381454D-01
      0.5094790000D+01  0.1903731086D+00
      0.1158790000D+01  0.8521614860D+00
 S   1 1.00       0.000000000000
      0.3258400000D+00  0.1000000000D+01
 S   1 1.00       0.000000000000
      0.1027410000D+00  0.1000000000D+01
 P   1 1.00       0.000000000000
      0.7500000000D+00  0.1000000000D+01
 ****

 There are   231 symmetry adapted cartesian basis functions of A   symmetry.
 There are   222 symmetry adapted basis functions of A   symmetry.
   222 basis functions,   368 primitive gaussians,   231 cartesian basis functions
    35 alpha electrons       35 beta electrons
       nuclear repulsion energy       448.0828779408 Hartrees.
 NAtoms=   19 NActive=   19 NUniq=   19 SFac= 1.00D+00 NAtFMM=   60 NAOKFM=F Big=F
 Integral buffers will be    131072 words long.
 Raffenetti 2 integral format.
 Two-electron integral symmetry is turned on.
 One-electron integrals computed using PRISM.
 NBasis=   222 RedAO= T EigKep=  1.33D-03  NBF=   222
 NBsUse=   222 1.00D-06 EigRej= -1.00D+00 NBFU=   222
 ExpMin= 1.03D-01 ExpMax= 8.59D+03 ExpMxC= 1.30D+03 IAcc=1 IRadAn=         1 AccDes= 0.00D+00
 Harris functional with IExCor=  402 and IRadAn=       1 diagonalized for initial guess.
 HarFok:  IExCor=  402 AccDes= 0.00D+00 IRadAn=         1 IDoV= 1 UseB2=F ITyADJ=14
 ICtDFT=  3500011 ScaDFX=  1.000000  1.000000  1.000000  1.000000
 FoFCou: FMM=F IPFlag=           0 FMFlag=      100000 FMFlg1=           0
         NFxFlg=           0 DoJE=T BraDBF=F KetDBF=T FulRan=T
         wScrn=  0.000000 ICntrl=     500 IOpCl=  0 I1Cent=   200000004 NGrid=           0
         NMat0=    1 NMatS0=      1 NMatT0=    0 NMatD0=    1 NMtDS0=    0 NMtDT0=    0
 Petite list used in FoFCou.
 Requested convergence on RMS density matrix=1.00D-08 within 128 cycles.
 Requested convergence on MAX density matrix=1.00D-06.
 Requested convergence on             energy=1.00D-06.
 No special actions if energy rises.
 Integral accuracy reduced to 1.0D-05 until final iterations.
 Initial convergence to 1.0D-05 achieved.  Increase integral accuracy.
 SCF Done:  E(RB3LYP) =  -456.670432647     A.U. after   14 cycles
            NFock= 14  Conv=0.45D-08     -V/T= 2.0038

 **********************************************************************

            Population analysis using the SCF density.

 **********************************************************************

 Orbital symmetries:
       Occupied  (A) (A) (A) (A) (A) (A) (A) (A) (A) (A) (A) (A)
                 (A) (A) (A) (A) (A) (A) (A) (A) (A) (A) (A) (A)
                 (A) (A) (A) (A) (A) (A) (A) (A) (A) (A) (A)
       Virtual   (A) (A) (A) (A) (A) (A) (A) (A) (A) (A) (A) (A)
                 (A) (A) (A) (A) (A) (A) (A) (A) (A) (A) (A) (A)
                 (A) (A) (A) (A) (A) (A) (A) (A) (A) (A) (A) (A)
                 (A) (A) (A) (A) (A) (A) (A) (A) (A) (A) (A) (A)
                 (A) (A) (A) (A) (A) (A) (A) (A) (A) (A) (A) (A)
                 (A) (A) (A) (A) (A) (A) (A) (A) (A) (A) (A) (A)
                 (A) (A) (A) (A) (A) (A) (A) (A) (A) (A) (A) (A)
                 (A) (A) (A) (A) (A) (A) (A) (A) (A) (A) (A) (A)
                 (A) (A) (A) (A) (A) (A) (A) (A) (A) (A) (A) (A)
                 (A) (A) (A) (A) (A) (A) (A) (A) (A) (A) (A) (A)
                 (A) (A) (A) (A) (A) (A) (A) (A) (A) (A) (A) (A)
                 (A) (A) (A) (A) (A) (A) (A) (A) (A) (A) (A) (A)
                 (A) (A) (A) (A) (A) (A) (A) (A) (A) (A) (A) (A)
                 (A) (A) (A) (A) (A) (A) (A) (A) (A) (A) (A) (A)
                 (A) (A) (A) (A) (A) (A) (A) (A) (A) (A) (A) (A)
                 (A) (A) (A) (A) (A) (A) (A)
 The electronic state is 1-A.
 Alpha  occ. eigenvalues --  -19.10021 -19.06967 -14.35430 -14.33001 -10.28798
 Alpha  occ. eigenvalues --  -10.26430 -10.22233 -10.21491 -10.17133  -1.05498
 Alpha  occ. eigenvalues --   -1.02597  -0.94045  -0.92004  -0.76848  -0.73244
 Alpha  occ. eigenvalues --   -0.68804  -0.60530  -0.58821  -0.53989  -0.48893
 Alpha  occ. eigenvalues --   -0.48252  -0.47990  -0.45770  -0.45735  -0.43238
 Alpha  occ. eigenvalues --   -0.41651  -0.40708  -0.39481  -0.39134  -0.38449
 Alpha  occ. eigenvalues --   -0.34820  -0.28035  -0.27694  -0.25291  -0.24664
 Alpha virt. eigenvalues --    0.00722   0.02100   0.02991   0.04816   0.05597
 Alpha virt. eigenvalues --    0.08181   0.09185   0.09511   0.11954   0.11988
 Alpha virt. eigenvalues --    0.13346   0.13891   0.15556   0.18133   0.21233
 Alpha virt. eigenvalues --    0.24288   0.27176   0.27658   0.28175   0.28508
 Alpha virt. eigenvalues --    0.30884   0.32012   0.32467   0.36729   0.37516
 Alpha virt. eigenvalues --    0.39697   0.41685   0.42506   0.43836   0.44722
 Alpha virt. eigenvalues --    0.47070   0.49747   0.50177   0.52530   0.52910
 Alpha virt. eigenvalues --    0.55616   0.55634   0.56871   0.57326   0.58849
 Alpha virt. eigenvalues --    0.59242   0.59528   0.61520   0.63131   0.65411
 Alpha virt. eigenvalues --    0.66036   0.66537   0.67578   0.70860   0.72191
 Alpha virt. eigenvalues --    0.73830   0.74815   0.79950   0.86724   0.88662
 Alpha virt. eigenvalues --    0.90985   0.92447   0.95192   0.99822   1.00293
 Alpha virt. eigenvalues --    1.01467   1.01959   1.02226   1.04772   1.10938
 Alpha virt. eigenvalues --    1.18197   1.22149   1.22428   1.26891   1.27370
 Alpha virt. eigenvalues --    1.32470   1.39772   1.41110   1.42170   1.42897
 Alpha virt. eigenvalues --    1.43433   1.44486   1.46413   1.46569   1.47566
 Alpha virt. eigenvalues --    1.48855   1.49797   1.51302   1.51377   1.52069
 Alpha virt. eigenvalues --    1.55602   1.57497   1.59301   1.60779   1.66094
 Alpha virt. eigenvalues --    1.67762   1.69997   1.72413   1.72903   1.76019
 Alpha virt. eigenvalues --    1.79275   1.80897   1.81044   1.84991   1.89223
 Alpha virt. eigenvalues --    1.92594   1.93041   1.97408   1.99112   2.00651
 Alpha virt. eigenvalues --    2.01635   2.05868   2.10951   2.13408   2.16488
 Alpha virt. eigenvalues --    2.16508   2.23596   2.25402   2.31365   2.32467
 Alpha virt. eigenvalues --    2.32561   2.34356   2.36931   2.39107   2.39513
 Alpha virt. eigenvalues --    2.42143   2.44384   2.46259   2.48195   2.48287
 Alpha virt. eigenvalues --    2.49856   2.49908   2.51191   2.51331   2.56059
 Alpha virt. eigenvalues --    2.58241   2.62643   2.73051   2.76433   2.76814
 Alpha virt. eigenvalues --    2.79570   2.81288   2.81648   2.82617   2.85784
 Alpha virt. eigenvalues --    2.91025   2.91348   2.91739   2.93992   2.96369
 Alpha virt. eigenvalues --    3.04162   3.09265   3.13343   3.21519   3.31769
 Alpha virt. eigenvalues --    3.31946   3.35056   3.38157   3.48831   3.56971
 Alpha virt. eigenvalues --    3.58336   3.64163   3.65467   3.71004   3.72600
 Alpha virt. eigenvalues --    3.78083   3.80234   3.81229   3.84270   3.85192
 Alpha virt. eigenvalues --    3.87992   4.05769   4.12718   4.75631   4.83501
 Alpha virt. eigenvalues --    4.89781   4.93118   4.93166   4.98023   5.09058
 Alpha virt. eigenvalues --    5.16374   5.65209   5.65821  23.77852  23.80214
 Alpha virt. eigenvalues --   23.81184  23.86727  23.91639  35.56142  35.59400
 Alpha virt. eigenvalues --   49.97814  50.00744
     Molecular Orbital Coefficients:
                           1         2         3         4         5
                           O         O         O         O         O
     Eigenvalues --   -19.10021 -19.06967 -14.35430 -14.33001 -10.28798
   1 1   H  1S          0.00000   0.00007  -0.00002  -0.00008   0.00001
   2        2S         -0.00009  -0.00112   0.00008   0.00007  -0.00010
   3        3S          0.00016  -0.00035  -0.00007   0.00032   0.00010
   4        4PX         0.00001   0.00011  -0.00001  -0.00002   0.00000
   5        4PY         0.00001   0.00021   0.00000   0.00011   0.00003
   6        4PZ         0.00000   0.00000   0.00000   0.00000   0.00000
   7 2   C  1S          0.00000   0.00000   0.00000  -0.00001   0.00000
   8        2S          0.00001   0.00001   0.00000   0.00004   0.00000
   9        2PX         0.00001  -0.00003  -0.00001   0.00006  -0.00001
  10        2PY        -0.00001  -0.00010   0.00001  -0.00004   0.00000
  11        2PZ         0.00000   0.00000   0.00000   0.00000   0.00000
  12        3S         -0.00009  -0.00015  -0.00004  -0.00021  -0.00008
  13        3PX        -0.00005   0.00003   0.00002  -0.00036   0.00002
  14        3PY         0.00003   0.00051  -0.00005   0.00027   0.00000
  15        3PZ         0.00000   0.00000   0.00000   0.00000   0.00000
  16        4S          0.00130   0.00477   0.00015   0.00237   0.00144
  17        4PX         0.00030   0.00186  -0.00013  -0.00030   0.00025
  18        4PY        -0.00051   0.00029  -0.00009  -0.00158  -0.00048
  19        4PZ         0.00000   0.00000   0.00000   0.00000   0.00000
  20        5D 0        0.00001   0.00006  -0.00002   0.00005   0.00000
  21        5D+1        0.00000   0.00000   0.00000   0.00000   0.00000
  22        5D-1        0.00000   0.00000   0.00000   0.00000   0.00000
  23        5D+2        0.00000   0.00025   0.00000  -0.00012   0.00000
  24        5D-2        0.00001   0.00030  -0.00001   0.00025   0.00000
  25 3   C  1S          0.00000  -0.00001   0.00000   0.00000   0.00004
  26        2S          0.00002   0.00005  -0.00002   0.00007   0.00002
  27        2PX         0.00004  -0.00008  -0.00006   0.00046  -0.00003
  28        2PY        -0.00001  -0.00038  -0.00002   0.00026  -0.00002
  29        2PZ         0.00000   0.00000   0.00000   0.00000   0.00000
  30        3S         -0.00015   0.00076   0.00024   0.00030   0.00011
  31        3PX        -0.00021   0.00014   0.00034  -0.00132   0.00010
  32        3PY         0.00005   0.00105   0.00011  -0.00090   0.00011
  33        3PZ         0.00000   0.00000   0.00000   0.00000   0.00000
  34        4S         -0.00015   0.00001   0.00136   0.00304   0.00006
  35        4PX         0.00120  -0.00094   0.00077   0.00520   0.00126
  36        4PY        -0.00078  -0.00812   0.00023  -0.00038  -0.00096
  37        4PZ         0.00000   0.00000   0.00000   0.00000   0.00000
  38        5D 0       -0.00004   0.00027  -0.00001   0.00025  -0.00001
  39        5D+1        0.00000   0.00000   0.00000   0.00000   0.00000
  40        5D-1        0.00000   0.00000   0.00000   0.00000   0.00000
  41        5D+2       -0.00001   0.00096   0.00003  -0.00087   0.00005
  42        5D-2        0.00001  -0.00049   0.00001  -0.00081  -0.00003
  43 4   N  1S          0.00000   0.00000  -0.00002   0.55734   0.00000
  44        2S          0.00001   0.00003  -0.00001   0.46566   0.00001
  45        2PX         0.00002  -0.00013   0.00007   0.00022   0.00004
  46        2PY         0.00001  -0.00005   0.00000  -0.00011   0.00001
  47        2PZ         0.00000   0.00000   0.00000   0.00000   0.00000
  48        3S          0.00000  -0.00020   0.00000   0.01634   0.00008
  49        3PX        -0.00009   0.00067  -0.00036  -0.00046  -0.00021
  50        3PY        -0.00007   0.00017  -0.00001   0.00026  -0.00013
  51        3PZ         0.00000   0.00000   0.00000   0.00000   0.00000
  52        4S         -0.00030   0.00152  -0.00092  -0.01309  -0.00170
  53        4PX        -0.00027  -0.00262   0.00197   0.00057   0.00010
  54        4PY        -0.00045   0.00264   0.00103   0.00455   0.00096
  55        4PZ         0.00000   0.00000   0.00000   0.00000   0.00000
  56        5D 0        0.00007  -0.00004  -0.00003  -0.00074   0.00002
  57        5D+1        0.00000   0.00000   0.00000   0.00000   0.00000
  58        5D-1        0.00000   0.00000   0.00000   0.00000   0.00000
  59        5D+2        0.00006  -0.00009  -0.00007  -0.00016   0.00003
  60        5D-2       -0.00002  -0.00017   0.00000   0.00045   0.00005
  61 5   O  1S          0.00000   0.55130   0.00000   0.00000   0.00000
  62        2S          0.00000   0.46973   0.00000   0.00004   0.00000
  63        2PX         0.00001   0.00032   0.00000   0.00000   0.00001
  64        2PY         0.00000   0.00113   0.00000   0.00009   0.00000
  65        2PZ         0.00000   0.00000   0.00000   0.00000   0.00000
  66        3S          0.00001   0.01384  -0.00001  -0.00017   0.00001
  67        3PX        -0.00002   0.00017   0.00001  -0.00004  -0.00004
  68        3PY         0.00000   0.00082   0.00002  -0.00045   0.00001
  69        3PZ         0.00000   0.00000   0.00000   0.00000   0.00000
  70        4S         -0.00027  -0.01098   0.00005  -0.00072  -0.00026
  71        4PX        -0.00010  -0.00062  -0.00009  -0.00109  -0.00004
  72        4PY        -0.00006  -0.00224   0.00006   0.00006   0.00006
  73        4PZ         0.00000   0.00000   0.00000   0.00000   0.00000
  74        5D 0       -0.00001  -0.00015  -0.00002   0.00002  -0.00003
  75        5D+1        0.00000   0.00000   0.00000   0.00000   0.00000
  76        5D-1        0.00000   0.00000   0.00000   0.00000   0.00000
  77        5D+2        0.00001  -0.00025  -0.00001   0.00007  -0.00001
  78        5D-2       -0.00001   0.00012   0.00000  -0.00022   0.00000
  79 6   H  1S          0.00001   0.00005   0.00001   0.00002   0.00001
  80        2S         -0.00016  -0.00046  -0.00004  -0.00042  -0.00015
  81        3S          0.00000  -0.00004  -0.00003  -0.00012  -0.00003
  82        4PX        -0.00001  -0.00015   0.00000   0.00004  -0.00001
  83        4PY         0.00000  -0.00002   0.00001   0.00001   0.00000
  84        4PZ        -0.00003  -0.00008  -0.00001  -0.00014  -0.00002
  85 7   H  1S          0.00001   0.00005   0.00001   0.00002   0.00001
  86        2S         -0.00016  -0.00046  -0.00004  -0.00042  -0.00015
  87        3S          0.00000  -0.00004  -0.00003  -0.00012  -0.00003
  88        4PX        -0.00001  -0.00015   0.00000   0.00004  -0.00001
  89        4PY         0.00000  -0.00002   0.00001   0.00001   0.00000
  90        4PZ         0.00003   0.00008   0.00001   0.00014   0.00002
  91 8   C  1S         -0.00001   0.00000  -0.00001   0.00001   0.00090
  92        2S          0.00004  -0.00002   0.00004  -0.00001   0.00077
  93        2PX         0.00004   0.00004   0.00009  -0.00021   0.00048
  94        2PY         0.00007  -0.00002   0.00004   0.00030   0.00033
  95        2PZ         0.00000   0.00000   0.00000   0.00000   0.00000
  96        3S         -0.00016   0.00009  -0.00030  -0.00011  -0.00015
  97        3PX        -0.00023  -0.00027  -0.00040   0.00016  -0.00126
  98        3PY        -0.00027   0.00006  -0.00036  -0.00089  -0.00109
  99        3PZ         0.00000   0.00000   0.00000   0.00000   0.00000
 100        4S          0.00313   0.00353   0.00220   0.00939   0.00864
 101        4PX         0.00297   0.00007  -0.00005  -0.00095   0.00344
 102        4PY        -0.00019   0.00046   0.00037   0.00209   0.00214
 103        4PZ         0.00000   0.00000   0.00000   0.00000   0.00000
 104        5D 0        0.00000   0.00010   0.00015   0.00050   0.00064
 105        5D+1        0.00000   0.00000   0.00000   0.00000   0.00000
 106        5D-1        0.00000   0.00000   0.00000   0.00000   0.00000
 107        5D+2        0.00018  -0.00007  -0.00022  -0.00001  -0.00042
 108        5D-2       -0.00025   0.00000  -0.00016   0.00054  -0.00055
 109 9   C  1S         -0.00002   0.00000   0.00000   0.00000   0.56299
 110        2S          0.00006   0.00000   0.00008   0.00001   0.46346
 111        2PX         0.00000   0.00001   0.00044  -0.00003   0.00036
 112        2PY         0.00038  -0.00001  -0.00035  -0.00003  -0.00011
 113        2PZ         0.00000   0.00000   0.00000   0.00000   0.00000
 114        3S          0.00069   0.00002   0.00024   0.00015   0.01709
 115        3PX        -0.00005   0.00001  -0.00132   0.00017   0.00033
 116        3PY        -0.00097   0.00001   0.00112   0.00007   0.00126
 117        3PZ         0.00000   0.00000   0.00000   0.00000   0.00000
 118        4S         -0.00048  -0.00117   0.00420  -0.00402  -0.00464
 119        4PX         0.00032   0.00039   0.00603   0.00208   0.00685
 120        4PY         0.00885   0.00039  -0.00226   0.00118   0.00575
 121        4PZ         0.00000   0.00000   0.00000   0.00000   0.00000
 122        5D 0        0.00026  -0.00001   0.00027   0.00005  -0.00172
 123        5D+1        0.00000   0.00000   0.00000   0.00000   0.00000
 124        5D-1        0.00000   0.00000   0.00000   0.00000   0.00000
 125        5D+2        0.00098   0.00002  -0.00030   0.00003  -0.00097
 126        5D-2        0.00004  -0.00001   0.00109  -0.00016  -0.00050
 127 10  N  1S          0.00000   0.00000   0.55736   0.00002  -0.00005
 128        2S          0.00005   0.00000   0.46566   0.00002  -0.00004
 129        2PX        -0.00009   0.00000   0.00016  -0.00004  -0.00045
 130        2PY         0.00009   0.00001  -0.00008   0.00002   0.00023
 131        2PZ         0.00000   0.00000   0.00000   0.00000   0.00000
 132        3S         -0.00043  -0.00002   0.01619  -0.00007   0.00063
 133        3PX         0.00050  -0.00001  -0.00080   0.00019   0.00130
 134        3PY        -0.00040  -0.00005  -0.00016  -0.00010  -0.00062
 135        3PZ         0.00000   0.00000   0.00000   0.00000   0.00000
 136        4S          0.00338   0.00033  -0.01221   0.00056  -0.00266
 137        4PX        -0.00303  -0.00001   0.00122  -0.00102   0.00050
 138        4PY        -0.00170   0.00003  -0.00429  -0.00054  -0.00464
 139        4PZ         0.00000   0.00000   0.00000   0.00000   0.00000
 140        5D 0       -0.00008   0.00000  -0.00075  -0.00002   0.00058
 141        5D+1        0.00000   0.00000   0.00000   0.00000   0.00000
 142        5D-1        0.00000   0.00000   0.00000   0.00000   0.00000
 143        5D+2       -0.00001   0.00000  -0.00036  -0.00004  -0.00061
 144        5D-2        0.00022   0.00001  -0.00017   0.00002   0.00077
 145 11  O  1S          0.55130   0.00000   0.00001   0.00000  -0.00008
 146        2S          0.46973   0.00001   0.00005   0.00001  -0.00008
 147        2PX         0.00000  -0.00001   0.00002  -0.00004  -0.00005
 148        2PY        -0.00117   0.00000  -0.00007  -0.00001  -0.00054
 149        2PZ         0.00000   0.00000   0.00000   0.00000   0.00000
 150        3S          0.01387  -0.00001  -0.00031  -0.00008   0.00075
 151        3PX        -0.00001   0.00003  -0.00005   0.00015   0.00020
 152        3PY        -0.00081   0.00002   0.00036   0.00005   0.00167
 153        3PZ         0.00000   0.00000   0.00000   0.00000   0.00000
 154        4S         -0.01142   0.00002   0.00021   0.00023  -0.00683
 155        4PX         0.00000  -0.00007  -0.00101  -0.00041  -0.00115
 156        4PY         0.00246  -0.00008   0.00007  -0.00027   0.00286
 157        4PZ         0.00000   0.00000   0.00000   0.00000   0.00000
 158        5D 0       -0.00014   0.00000   0.00001   0.00000   0.00058
 159        5D+1        0.00000   0.00000   0.00000   0.00000   0.00000
 160        5D-1        0.00000   0.00000   0.00000   0.00000   0.00000
 161        5D+2       -0.00025  -0.00001   0.00013  -0.00003   0.00088
 162        5D-2        0.00000   0.00000   0.00018   0.00000   0.00000
 163 12  H  1S         -0.00012   0.00001  -0.00002   0.00001  -0.00013
 164        2S          0.00065  -0.00120  -0.00052  -0.00263   0.00030
 165        3S         -0.00035   0.00021   0.00014   0.00023  -0.00036
 166        4PX        -0.00003   0.00021   0.00001   0.00047   0.00010
 167        4PY        -0.00014   0.00018   0.00005   0.00174  -0.00016
 168        4PZ         0.00000   0.00000   0.00000   0.00000   0.00000
 169 13  H  1S         -0.00005   0.00006   0.00005  -0.00001  -0.00011
 170        2S          0.00004  -0.00057  -0.00060  -0.00150  -0.00102
 171        3S         -0.00012  -0.00032  -0.00014  -0.00023   0.00045
 172        4PX        -0.00003   0.00005  -0.00005   0.00009   0.00007
 173        4PY         0.00009  -0.00007  -0.00009  -0.00030  -0.00020
 174        4PZ        -0.00005  -0.00012  -0.00017  -0.00035  -0.00032
 175 14  H  1S         -0.00005   0.00006   0.00005  -0.00001  -0.00011
 176        2S          0.00004  -0.00057  -0.00060  -0.00150  -0.00102
 177        3S         -0.00012  -0.00032  -0.00014  -0.00023   0.00045
 178        4PX        -0.00003   0.00005  -0.00005   0.00009   0.00007
 179        4PY         0.00009  -0.00007  -0.00009  -0.00030  -0.00020
 180        4PZ         0.00005   0.00012   0.00017   0.00035   0.00033
 181 15  C  1S          0.00000   0.00000   0.00002   0.00000   0.00000
 182        2S         -0.00001   0.00000  -0.00004  -0.00001  -0.00002
 183        2PX         0.00002   0.00000  -0.00027   0.00002   0.00007
 184        2PY         0.00004   0.00000  -0.00019   0.00001  -0.00003
 185        2PZ         0.00000   0.00000   0.00000   0.00000   0.00000
 186        3S          0.00020   0.00002   0.00041   0.00013   0.00025
 187        3PX        -0.00021   0.00001   0.00045  -0.00014  -0.00041
 188        3PY        -0.00021   0.00001   0.00044  -0.00002   0.00009
 189        3PZ         0.00000   0.00000   0.00000   0.00000   0.00000
 190        4S          0.00125  -0.00020   0.00378   0.00030   0.00081
 191        4PX        -0.00015   0.00008  -0.00105   0.00007  -0.00035
 192        4PY        -0.00017   0.00004   0.00020  -0.00007   0.00114
 193        4PZ         0.00000   0.00000   0.00000   0.00000   0.00000
 194        5D 0        0.00006   0.00000   0.00043   0.00000  -0.00004
 195        5D+1        0.00000   0.00000   0.00000   0.00000   0.00000
 196        5D-1        0.00000   0.00000   0.00000   0.00000   0.00000
 197        5D+2        0.00004  -0.00001  -0.00021  -0.00002   0.00012
 198        5D-2        0.00000   0.00000  -0.00056   0.00001  -0.00015
 199 16  H  1S         -0.00002  -0.00001  -0.00004  -0.00001  -0.00001
 200        2S         -0.00003   0.00004  -0.00079   0.00004   0.00018
 201        3S         -0.00011  -0.00001  -0.00006  -0.00011   0.00011
 202        4PX        -0.00003  -0.00001   0.00019  -0.00002   0.00000
 203        4PY         0.00001   0.00000  -0.00012   0.00001  -0.00006
 204        4PZ        -0.00002   0.00000  -0.00022   0.00001   0.00007
 205 17  H  1S         -0.00001   0.00003   0.00003   0.00005   0.00004
 206        2S         -0.00143  -0.00016  -0.00274  -0.00068  -0.00207
 207        3S          0.00014   0.00017   0.00027   0.00034  -0.00019
 208        4PX         0.00007   0.00000  -0.00021   0.00004  -0.00036
 209        4PY        -0.00033  -0.00003  -0.00185  -0.00012  -0.00037
 210        4PZ         0.00000   0.00000   0.00000   0.00000   0.00000
 211 18  H  1S         -0.00002  -0.00001  -0.00004  -0.00001  -0.00001
 212        2S         -0.00003   0.00004  -0.00079   0.00004   0.00018
 213        3S         -0.00011  -0.00001  -0.00006  -0.00011   0.00011
 214        4PX        -0.00003  -0.00001   0.00019  -0.00002   0.00000
 215        4PY         0.00001   0.00000  -0.00012   0.00001  -0.00006
 216        4PZ         0.00002   0.00000   0.00022  -0.00001  -0.00007
 217 19  H  1S         -0.00002   0.00000  -0.00002   0.00002  -0.00002
 218        2S          0.00005  -0.00001  -0.00099  -0.00008  -0.00044
 219        3S         -0.00030   0.00001  -0.00054   0.00001  -0.00097
 220        4PX         0.00006   0.00000  -0.00004   0.00002   0.00005
 221        4PY        -0.00009   0.00001   0.00024   0.00001   0.00003
 222        4PZ         0.00000   0.00000   0.00000   0.00000   0.00000
                           6         7         8         9        10
                           O         O         O         O         O
     Eigenvalues --   -10.26430 -10.22233 -10.21491 -10.17133  -1.05498
   1 1   H  1S         -0.00001   0.00000   0.00001   0.00014   0.00067
   2        2S         -0.00107  -0.00005   0.00000  -0.00281   0.00128
   3        3S          0.00003   0.00002   0.00003   0.00138  -0.00021
   4        4PX         0.00019  -0.00001   0.00000   0.00093   0.00002
   5        4PY         0.00027   0.00003   0.00000   0.00189  -0.00033
   6        4PZ         0.00000   0.00000   0.00000   0.00000   0.00000
   7 2   C  1S          0.00068   0.00000   0.00000   0.56293  -0.00154
   8        2S          0.00056   0.00000   0.00000   0.46325  -0.00237
   9        2PX         0.00043  -0.00001   0.00000   0.00018   0.00114
  10        2PY        -0.00038   0.00001   0.00000  -0.00010  -0.00106
  11        2PZ         0.00000   0.00000   0.00000   0.00000   0.00000
  12        3S          0.00007  -0.00012   0.00002   0.01873   0.00641
  13        3PX        -0.00129   0.00007   0.00002  -0.00117   0.00203
  14        3PY         0.00110  -0.00005   0.00000   0.00091  -0.00198
  15        3PZ         0.00000   0.00000   0.00000   0.00000   0.00000
  16        4S          0.00707   0.00286  -0.00009  -0.00757  -0.00661
  17        4PX         0.00233   0.00035  -0.00005  -0.00060  -0.00166
  18        4PY        -0.00170  -0.00098   0.00001   0.00126   0.00235
  19        4PZ         0.00000   0.00000   0.00000   0.00000   0.00000
  20        5D 0        0.00064   0.00004   0.00000   0.00034  -0.00035
  21        5D+1        0.00000   0.00000   0.00000   0.00000   0.00000
  22        5D-1        0.00000   0.00000   0.00000   0.00000   0.00000
  23        5D+2        0.00001  -0.00001   0.00000  -0.00007  -0.00004
  24        5D-2        0.00085   0.00001  -0.00001   0.00056  -0.00060
  25 3   C  1S          0.56301   0.00002  -0.00001  -0.00070  -0.00990
  26        2S          0.46344   0.00001  -0.00002  -0.00058  -0.01510
  27        2PX         0.00036   0.00007  -0.00003  -0.00039   0.00351
  28        2PY         0.00006   0.00003   0.00000   0.00042  -0.00584
  29        2PZ         0.00000   0.00000   0.00000   0.00000   0.00000
  30        3S          0.01715   0.00008   0.00007   0.00018   0.04012
  31        3PX         0.00026  -0.00039   0.00017   0.00092   0.00604
  32        3PY        -0.00132  -0.00007   0.00002  -0.00115  -0.00689
  33        3PZ         0.00000   0.00000   0.00000   0.00000   0.00000
  34        4S         -0.00336  -0.00068   0.00024   0.00125   0.01025
  35        4PX         0.00421   0.00262   0.00000  -0.00241  -0.00661
  36        4PY        -0.00658  -0.00189  -0.00004   0.00003   0.00765
  37        4PZ         0.00000   0.00000   0.00000   0.00000   0.00000
  38        5D 0       -0.00173  -0.00003   0.00000   0.00020  -0.00236
  39        5D+1        0.00000   0.00000   0.00000   0.00000   0.00000
  40        5D-1        0.00000   0.00000   0.00000   0.00000   0.00000
  41        5D+2       -0.00063  -0.00010   0.00005  -0.00007  -0.00073
  42        5D-2        0.00064  -0.00009  -0.00001   0.00079   0.00168
  43 4   N  1S         -0.00005  -0.00003   0.00000   0.00000  -0.01509
  44        2S         -0.00005  -0.00005  -0.00001   0.00003  -0.02362
  45        2PX        -0.00046   0.00026   0.00000  -0.00010   0.00384
  46        2PY        -0.00011  -0.00020   0.00001   0.00002  -0.00182
  47        2PZ         0.00000   0.00000   0.00000   0.00000   0.00000
  48        3S          0.00081   0.00041   0.00017  -0.00016   0.06337
  49        3PX         0.00128  -0.00042  -0.00002   0.00052   0.00632
  50        3PY         0.00023   0.00029  -0.00008  -0.00008  -0.00374
  51        3PZ         0.00000   0.00000   0.00000   0.00000   0.00000
  52        4S         -0.00410   0.00046  -0.00140   0.00014   0.04278
  53        4PX         0.00165   0.00043  -0.00023  -0.00169   0.00517
  54        4PY         0.00512   0.00122   0.00065   0.00116  -0.00614
  55        4PZ         0.00000   0.00000   0.00000   0.00000   0.00000
  56        5D 0        0.00055   0.00021   0.00002   0.00001  -0.00249
  57        5D+1        0.00000   0.00000   0.00000   0.00000   0.00000
  58        5D-1        0.00000   0.00000   0.00000   0.00000   0.00000
  59        5D+2       -0.00089  -0.00009  -0.00001  -0.00015   0.00128
  60        5D-2       -0.00035   0.00049  -0.00001   0.00000  -0.00005
  61 5   O  1S         -0.00009   0.00000   0.00000   0.00000  -0.00971
  62        2S         -0.00009  -0.00001   0.00000   0.00002  -0.01548
  63        2PX         0.00007   0.00000   0.00000   0.00000   0.00242
  64        2PY         0.00055   0.00004   0.00000   0.00007   0.00717
  65        2PZ         0.00000   0.00000   0.00000   0.00000   0.00000
  66        3S          0.00081   0.00012   0.00000  -0.00002   0.04398
  67        3PX        -0.00016   0.00002  -0.00002  -0.00002   0.00350
  68        3PY        -0.00169  -0.00017   0.00002  -0.00037   0.01063
  69        3PZ         0.00000   0.00000   0.00000   0.00000   0.00000
  70        4S         -0.00695  -0.00094   0.00000  -0.00104   0.03237
  71        4PX        -0.00168  -0.00060   0.00005   0.00022   0.00279
  72        4PY        -0.00241   0.00017   0.00001  -0.00028   0.00418
  73        4PZ         0.00000   0.00000   0.00000   0.00000   0.00000
  74        5D 0        0.00057   0.00000  -0.00001   0.00003  -0.00072
  75        5D+1        0.00000   0.00000   0.00000   0.00000   0.00000
  76        5D-1        0.00000   0.00000   0.00000   0.00000   0.00000
  77        5D+2        0.00076   0.00000  -0.00001   0.00015  -0.00119
  78        5D-2       -0.00040  -0.00004   0.00000   0.00000   0.00091
  79 6   H  1S         -0.00008   0.00001   0.00000   0.00006   0.00057
  80        2S         -0.00105  -0.00026   0.00002  -0.00257   0.00145
  81        3S          0.00042  -0.00007  -0.00002   0.00149  -0.00008
  82        4PX        -0.00020   0.00002   0.00000  -0.00117   0.00017
  83        4PY        -0.00015   0.00000   0.00000  -0.00035  -0.00003
  84        4PZ        -0.00033  -0.00005   0.00000  -0.00173   0.00028
  85 7   H  1S         -0.00008   0.00001   0.00000   0.00006   0.00057
  86        2S         -0.00105  -0.00026   0.00002  -0.00257   0.00145
  87        3S          0.00042  -0.00007  -0.00002   0.00149  -0.00008
  88        4PX        -0.00020   0.00002   0.00000  -0.00117   0.00017
  89        4PY        -0.00015   0.00000   0.00000  -0.00035  -0.00003
  90        4PZ         0.00033   0.00005   0.00000   0.00173  -0.00028
  91 8   C  1S         -0.00002   0.56299   0.00004   0.00000  -0.01619
  92        2S         -0.00003   0.46334   0.00004   0.00000  -0.02495
  93        2PX         0.00008  -0.00031  -0.00001   0.00001   0.00533
  94        2PY         0.00003   0.00067  -0.00002  -0.00002   0.01077
  95        2PZ         0.00000   0.00000   0.00000   0.00000   0.00000
  96        3S         -0.00009   0.01824  -0.00026  -0.00016   0.06573
  97        3PX        -0.00036   0.00012   0.00009  -0.00007   0.01025
  98        3PY        -0.00012  -0.00209   0.00004   0.00007   0.02082
  99        3PZ         0.00000   0.00000   0.00000   0.00000   0.00000
 100        4S          0.00440  -0.01116   0.00488   0.00292  -0.00637
 101        4PX        -0.00119  -0.00100   0.00058  -0.00094  -0.00879
 102        4PY         0.00065  -0.00159   0.00146   0.00048  -0.00204
 103        4PZ         0.00000   0.00000   0.00000   0.00000   0.00000
 104        5D 0        0.00005   0.00078   0.00000   0.00000  -0.00387
 105        5D+1        0.00000   0.00000   0.00000   0.00000   0.00000
 106        5D-1        0.00000   0.00000   0.00000   0.00000   0.00000
 107        5D+2        0.00015  -0.00056   0.00001   0.00000   0.00003
 108        5D-2        0.00002   0.00012   0.00002  -0.00001   0.00279
 109 9   C  1S         -0.00004  -0.00093   0.00000   0.00000  -0.07132
 110        2S         -0.00005  -0.00074  -0.00001   0.00000  -0.10873
 111        2PX         0.00003  -0.00046   0.00001   0.00000   0.01168
 112        2PY         0.00001  -0.00031  -0.00001   0.00000   0.06654
 113        2PZ         0.00000   0.00000   0.00000   0.00000   0.00000
 114        3S          0.00021  -0.00013   0.00021  -0.00001   0.28853
 115        3PX        -0.00016   0.00116  -0.00019   0.00001   0.01701
 116        3PY        -0.00010   0.00084  -0.00003  -0.00001   0.08149
 117        3PZ         0.00000   0.00000   0.00000   0.00000   0.00000
 118        4S         -0.00014   0.00363  -0.00185  -0.00057   0.07490
 119        4PX         0.00302  -0.00305   0.00379   0.00038  -0.01785
 120        4PY        -0.00154  -0.00059   0.00207   0.00008  -0.02843
 121        4PZ         0.00000   0.00000   0.00000   0.00000   0.00000
 122        5D 0        0.00006   0.00010  -0.00001   0.00000  -0.01757
 123        5D+1        0.00000   0.00000   0.00000   0.00000   0.00000
 124        5D-1        0.00000   0.00000   0.00000   0.00000   0.00000
 125        5D+2        0.00007  -0.00033   0.00008   0.00002  -0.01861
 126        5D-2       -0.00003  -0.00078   0.00006  -0.00002  -0.00393
 127 10  N  1S          0.00000   0.00000  -0.00003   0.00000  -0.03550
 128        2S         -0.00002   0.00004  -0.00009   0.00000  -0.05561
 129        2PX         0.00001  -0.00009   0.00023  -0.00001  -0.01275
 130        2PY        -0.00001   0.00002   0.00009   0.00000   0.01430
 131        2PZ         0.00000   0.00000   0.00000   0.00000   0.00000
 132        3S          0.00029  -0.00016   0.00071  -0.00001   0.15194
 133        3PX        -0.00006   0.00048  -0.00018   0.00005  -0.01985
 134        3PY         0.00006  -0.00013  -0.00005  -0.00001   0.02307
 135        3PZ         0.00000   0.00000   0.00000   0.00000   0.00001
 136        4S         -0.00213  -0.00027  -0.00106   0.00001   0.08854
 137        4PX         0.00095  -0.00093  -0.00127  -0.00025   0.00571
 138        4PY        -0.00062  -0.00012  -0.00237  -0.00012   0.02635
 139        4PZ         0.00000   0.00000   0.00000   0.00000   0.00000
 140        5D 0        0.00003   0.00004   0.00018   0.00000  -0.00434
 141        5D+1        0.00000   0.00000   0.00000   0.00000   0.00000
 142        5D-1        0.00000   0.00000   0.00000   0.00000   0.00000
 143        5D+2        0.00000  -0.00012  -0.00032  -0.00001  -0.00028
 144        5D-2        0.00000   0.00014  -0.00028   0.00000  -0.00391
 145 11  O  1S          0.00000   0.00000   0.00000   0.00000  -0.09349
 146        2S          0.00001   0.00003  -0.00001   0.00001  -0.14924
 147        2PX        -0.00001  -0.00001   0.00001  -0.00001   0.00080
 148        2PY         0.00002  -0.00006  -0.00003   0.00000  -0.06871
 149        2PZ         0.00000   0.00000   0.00000   0.00000   0.00000
 150        3S         -0.00013  -0.00014   0.00009  -0.00006   0.42580
 151        3PX         0.00004   0.00005  -0.00003   0.00004   0.00104
 152        3PY        -0.00008   0.00033   0.00010   0.00000  -0.10008
 153        3PZ         0.00000   0.00000   0.00000   0.00000   0.00000
 154        4S          0.00112  -0.00066  -0.00091   0.00020   0.30433
 155        4PX        -0.00041   0.00038  -0.00053  -0.00013   0.00185
 156        4PY        -0.00021   0.00023  -0.00016  -0.00008  -0.04252
 157        4PZ         0.00000   0.00000   0.00000   0.00000   0.00000
 158        5D 0        0.00001   0.00002  -0.00003  -0.00001  -0.00682
 159        5D+1        0.00000   0.00000   0.00000   0.00000   0.00000
 160        5D-1        0.00000   0.00000   0.00000   0.00000   0.00000
 161        5D+2       -0.00003   0.00013  -0.00002  -0.00001  -0.01296
 162        5D-2        0.00002  -0.00008   0.00004   0.00000  -0.00072
 163 12  H  1S          0.00006  -0.00004  -0.00001  -0.00005   0.01164
 164        2S         -0.00242  -0.00080   0.00001  -0.00040   0.01228
 165        3S          0.00014   0.00009  -0.00014  -0.00014   0.00096
 166        4PX        -0.00008   0.00018   0.00003   0.00012   0.00019
 167        4PY         0.00043   0.00012  -0.00004   0.00004  -0.00286
 168        4PZ         0.00000   0.00000   0.00000   0.00000   0.00000
 169 13  H  1S          0.00006  -0.00004   0.00000   0.00002   0.00606
 170        2S         -0.00069  -0.00231  -0.00023  -0.00037   0.00823
 171        3S         -0.00035   0.00170  -0.00001  -0.00009  -0.00125
 172        4PX         0.00013  -0.00005   0.00004   0.00004   0.00040
 173        4PY        -0.00005  -0.00112  -0.00006  -0.00003   0.00133
 174        4PZ        -0.00012  -0.00185  -0.00001  -0.00004   0.00185
 175 14  H  1S          0.00006  -0.00004   0.00000   0.00002   0.00606
 176        2S         -0.00069  -0.00231  -0.00023  -0.00037   0.00823
 177        3S         -0.00035   0.00170  -0.00001  -0.00009  -0.00125
 178        4PX         0.00013  -0.00005   0.00004   0.00004   0.00040
 179        4PY        -0.00005  -0.00112  -0.00006  -0.00003   0.00133
 180        4PZ         0.00012   0.00185   0.00001   0.00004  -0.00185
 181 15  C  1S          0.00001  -0.00004   0.56301   0.00000  -0.01052
 182        2S          0.00000  -0.00002   0.46325   0.00000  -0.01603
 183        2PX         0.00003   0.00001  -0.00076   0.00001  -0.01097
 184        2PY         0.00000   0.00001  -0.00052   0.00000  -0.00224
 185        2PZ         0.00000   0.00000   0.00000   0.00000   0.00000
 186        3S          0.00012  -0.00016   0.01842   0.00002   0.03960
 187        3PX        -0.00018   0.00001   0.00159  -0.00004  -0.01704
 188        3PY         0.00002  -0.00007   0.00121  -0.00001  -0.00362
 189        3PZ         0.00000   0.00000   0.00000   0.00000   0.00000
 190        4S         -0.00069   0.00166  -0.00379   0.00011  -0.00184
 191        4PX         0.00037  -0.00067   0.00007  -0.00001   0.00127
 192        4PY         0.00010  -0.00009  -0.00012  -0.00002  -0.00238
 193        4PZ         0.00000   0.00000   0.00000   0.00000   0.00001
 194        5D 0       -0.00002   0.00001   0.00042   0.00000  -0.00342
 195        5D+1        0.00000   0.00000   0.00000   0.00000   0.00000
 196        5D-1        0.00000   0.00000   0.00000   0.00000   0.00000
 197        5D+2        0.00003   0.00002  -0.00048   0.00000   0.00324
 198        5D-2        0.00001  -0.00002  -0.00069   0.00001   0.00227
 199 16  H  1S         -0.00002   0.00002   0.00011   0.00000   0.00373
 200        2S          0.00018  -0.00024  -0.00306   0.00001   0.00544
 201        3S         -0.00008   0.00001   0.00139  -0.00003  -0.00016
 202        4PX        -0.00004   0.00005   0.00097   0.00000  -0.00106
 203        4PY         0.00001  -0.00002  -0.00067   0.00000   0.00051
 204        4PZ         0.00003  -0.00002  -0.00181   0.00000   0.00113
 205 17  H  1S          0.00003  -0.00008   0.00002   0.00001   0.01770
 206        2S         -0.00007   0.00004  -0.00128  -0.00011   0.02618
 207        3S          0.00006  -0.00021  -0.00009   0.00010  -0.00110
 208        4PX        -0.00004   0.00003   0.00011   0.00000  -0.00049
 209        4PY         0.00005  -0.00002  -0.00023  -0.00001   0.00643
 210        4PZ         0.00000   0.00000   0.00000   0.00000   0.00000
 211 18  H  1S         -0.00002   0.00002   0.00011   0.00000   0.00374
 212        2S          0.00018  -0.00024  -0.00306   0.00001   0.00543
 213        3S         -0.00008   0.00001   0.00139  -0.00003  -0.00016
 214        4PX        -0.00004   0.00005   0.00097   0.00000  -0.00106
 215        4PY         0.00001  -0.00002  -0.00067   0.00000   0.00051
 216        4PZ        -0.00003   0.00002   0.00181   0.00000  -0.00113
 217 19  H  1S          0.00000  -0.00001   0.00010   0.00000   0.00621
 218        2S          0.00007  -0.00014  -0.00330  -0.00002   0.01016
 219        3S         -0.00001  -0.00002   0.00126   0.00001   0.00477
 220        4PX         0.00002  -0.00005  -0.00029   0.00000  -0.00097
 221        4PY        -0.00001   0.00000   0.00228   0.00000  -0.00168
 222        4PZ         0.00000   0.00000   0.00000   0.00000   0.00000
                          11        12        13        14        15
                           O         O         O         O         O
     Eigenvalues --    -1.02597  -0.94045  -0.92004  -0.76848  -0.73244
   1 1   H  1S          0.00396  -0.00028   0.00574  -0.03518   0.05506
   2        2S          0.00891  -0.00068   0.00357  -0.04211   0.06528
   3        3S          0.00088   0.00045   0.00068   0.00054   0.00365
   4        4PX        -0.00018   0.00001   0.00032   0.00175  -0.00374
   5        4PY        -0.00229   0.00008  -0.00115   0.00767  -0.01100
   6        4PZ         0.00000   0.00000   0.00000   0.00000   0.00000
   7 2   C  1S         -0.01158   0.00024  -0.00461   0.04793  -0.07480
   8        2S         -0.01778   0.00037  -0.00706   0.07419  -0.11593
   9        2PX         0.00714  -0.00032   0.00663  -0.01403   0.00596
  10        2PY        -0.00919  -0.00013   0.00200   0.00651  -0.00658
  11        2PZ         0.00000   0.00000   0.00000   0.00000   0.00000
  12        3S          0.04663  -0.00103   0.01766  -0.19582   0.30688
  13        3PX         0.01180  -0.00074   0.01171  -0.02675   0.01535
  14        3PY        -0.01779  -0.00009   0.00317   0.01433  -0.01467
  15        3PZ         0.00000   0.00000   0.00000   0.00000   0.00000
  16        4S         -0.00853   0.00301   0.00496  -0.08959   0.15724
  17        4PX        -0.00671   0.00128   0.00756  -0.00187  -0.00230
  18        4PY        -0.00057  -0.00121   0.00700  -0.00628   0.00629
  19        4PZ         0.00000   0.00000   0.00000   0.00000   0.00000
  20        5D 0       -0.00188   0.00015  -0.00140   0.00303  -0.00192
  21        5D+1        0.00000   0.00000   0.00000   0.00000   0.00000
  22        5D-1        0.00000   0.00000   0.00000   0.00000   0.00000
  23        5D+2       -0.00195  -0.00018   0.00387  -0.00210   0.00037
  24        5D-2       -0.00457   0.00008  -0.00087   0.00436  -0.00317
  25 3   C  1S         -0.07172   0.00023  -0.00768   0.03482  -0.02307
  26        2S         -0.10932   0.00044  -0.01217   0.05443  -0.03621
  27        2PX         0.00059  -0.00274   0.06039  -0.01150  -0.03786
  28        2PY        -0.06820  -0.00362   0.06647  -0.06004   0.04838
  29        2PZ         0.00000   0.00000   0.00001  -0.00001   0.00000
  30        3S          0.29049  -0.00214   0.03238  -0.15271   0.10088
  31        3PX         0.00425  -0.00577   0.08430  -0.01281  -0.05922
  32        3PY        -0.08559  -0.00529   0.08937  -0.08414   0.07051
  33        3PZ         0.00000   0.00000   0.00002  -0.00001   0.00000
  34        4S          0.07455  -0.00679  -0.00238  -0.06928   0.06245
  35        4PX        -0.00722   0.00014  -0.00908   0.01205  -0.02378
  36        4PY         0.02856  -0.00387   0.00763  -0.03015   0.03318
  37        4PZ         0.00000   0.00000   0.00000   0.00000   0.00000
  38        5D 0       -0.01718   0.00004  -0.00168   0.00499  -0.00261
  39        5D+1        0.00000   0.00000   0.00000   0.00000   0.00000
  40        5D-1        0.00000   0.00000   0.00000   0.00000   0.00000
  41        5D+2       -0.01522  -0.00119   0.02102  -0.00564   0.00016
  42        5D-2        0.01121  -0.00023   0.00205  -0.00048  -0.00799
  43 4   N  1S         -0.03878   0.00563  -0.09516   0.01678   0.01915
  44        2S         -0.06077   0.00885  -0.14966   0.02654   0.03038
  45        2PX        -0.01610  -0.00113   0.00330   0.06434  -0.02321
  46        2PY        -0.01326  -0.00177  -0.00552  -0.02663   0.00935
  47        2PZ         0.00000   0.00000  -0.00001   0.00001   0.00000
  48        3S          0.16548  -0.02428   0.40965  -0.07471  -0.08592
  49        3PX        -0.02586  -0.00033   0.00831   0.09600  -0.03376
  50        3PY        -0.02093  -0.00208  -0.01012  -0.04022   0.01375
  51        3PZ        -0.00001   0.00000  -0.00001   0.00001   0.00000
  52        4S          0.10592  -0.01049   0.30378  -0.04705  -0.07445
  53        4PX         0.00103  -0.00855  -0.00481   0.05592  -0.02429
  54        4PY        -0.02796  -0.00544  -0.01488  -0.02138   0.00699
  55        4PZ         0.00000   0.00000   0.00000   0.00001   0.00000
  56        5D 0       -0.00492   0.00084  -0.01111   0.00093   0.00120
  57        5D+1        0.00000   0.00000   0.00000   0.00000   0.00000
  58        5D-1        0.00000   0.00000   0.00000   0.00000   0.00000
  59        5D+2        0.00172   0.00010   0.00373  -0.00271   0.00379
  60        5D-2        0.00378  -0.00019  -0.00223  -0.00581  -0.00100
  61 5   O  1S         -0.09286  -0.00283   0.05166  -0.02144   0.01486
  62        2S         -0.14824  -0.00454   0.08279  -0.03457   0.02401
  63        2PX         0.01823   0.00017  -0.00007   0.00408  -0.01190
  64        2PY         0.06628   0.00167  -0.02946   0.00048   0.00318
  65        2PZ         0.00000   0.00000   0.00000   0.00000   0.00000
  66        3S          0.42323   0.01316  -0.23945   0.10173  -0.07158
  67        3PX         0.02636   0.00017  -0.00008   0.00602  -0.01813
  68        3PY         0.09643   0.00233  -0.04208   0.00172   0.00426
  69        3PZ         0.00001   0.00000   0.00000   0.00000   0.00000
  70        4S          0.29879   0.00843  -0.17176   0.08138  -0.05522
  71        4PX         0.01439  -0.00001   0.00401   0.00110  -0.00664
  72        4PY         0.03837   0.00057  -0.01636  -0.00246   0.00472
  73        4PZ         0.00000   0.00000   0.00000   0.00000   0.00000
  74        5D 0       -0.00641  -0.00012   0.00256  -0.00052   0.00013
  75        5D+1        0.00000   0.00000   0.00000   0.00000   0.00000
  76        5D-1        0.00000   0.00000   0.00000   0.00000   0.00000
  77        5D+2       -0.01140  -0.00029   0.00623  -0.00083  -0.00078
  78        5D-2        0.00674   0.00004  -0.00043   0.00079  -0.00295
  79 6   H  1S          0.00506  -0.00004   0.00081  -0.03058   0.05495
  80        2S          0.00741  -0.00034   0.00230  -0.03817   0.06679
  81        3S         -0.00059   0.00024  -0.00021   0.00025   0.00264
  82        4PX         0.00128  -0.00006   0.00018  -0.00482   0.00721
  83        4PY        -0.00026  -0.00002   0.00021  -0.00052   0.00097
  84        4PZ         0.00151  -0.00005   0.00050  -0.00571   0.00940
  85 7   H  1S          0.00506  -0.00004   0.00081  -0.03058   0.05495
  86        2S          0.00741  -0.00034   0.00230  -0.03817   0.06679
  87        3S         -0.00059   0.00024  -0.00021   0.00025   0.00264
  88        4PX         0.00128  -0.00006   0.00018  -0.00482   0.00722
  89        4PY        -0.00026  -0.00002   0.00021  -0.00052   0.00098
  90        4PZ        -0.00151   0.00005  -0.00050   0.00570  -0.00940
  91 8   C  1S         -0.01171  -0.00472  -0.04597  -0.06509  -0.00137
  92        2S         -0.01796  -0.00726  -0.07102  -0.10118  -0.00212
  93        2PX        -0.01338   0.00944  -0.02850   0.01987   0.03368
  94        2PY         0.00540  -0.00473   0.02527   0.00394  -0.00986
  95        2PZ         0.00000   0.00000   0.00000   0.00000   0.00000
  96        3S          0.04683   0.01867   0.18898   0.27501   0.00458
  97        3PX        -0.02030   0.01515  -0.04519   0.03219   0.05286
  98        3PY         0.00993  -0.00635   0.04574   0.01442  -0.01359
  99        3PZ         0.00000   0.00000   0.00000   0.00000   0.00000
 100        4S         -0.01494   0.00740   0.05067   0.11648   0.01966
 101        4PX        -0.00121   0.01127   0.00140   0.01393   0.01238
 102        4PY        -0.00786  -0.00667  -0.00141  -0.01136  -0.00197
 103        4PZ         0.00000   0.00000   0.00000   0.00000   0.00000
 104        5D 0       -0.00353  -0.00072  -0.00899  -0.00382   0.00095
 105        5D+1        0.00000   0.00000   0.00000   0.00000   0.00000
 106        5D-1        0.00000   0.00000   0.00000   0.00000   0.00000
 107        5D+2        0.00244   0.00446   0.00271   0.00230   0.00274
 108        5D-2       -0.00482   0.00035  -0.01303   0.00284   0.00744
 109 9   C  1S          0.00983  -0.01409   0.00006  -0.03380  -0.02912
 110        2S          0.01499  -0.02210  -0.00016  -0.05296  -0.04555
 111        2PX        -0.00573   0.04670  -0.01764  -0.02840   0.01705
 112        2PY        -0.01232  -0.07999  -0.02404  -0.05494  -0.04227
 113        2PZ         0.00000   0.00000   0.00000   0.00000   0.00000
 114        3S         -0.04083   0.06035  -0.00043   0.14899   0.13005
 115        3PX        -0.00941   0.06746  -0.02929  -0.04578   0.02401
 116        3PY        -0.01608  -0.10837  -0.03397  -0.07734  -0.05725
 117        3PZ         0.00000  -0.00001   0.00000   0.00001   0.00000
 118        4S          0.00487   0.00078   0.01237   0.07621   0.04787
 119        4PX        -0.00935  -0.01513  -0.01684  -0.02443  -0.00207
 120        4PY         0.00113  -0.00003  -0.00194  -0.02990  -0.01166
 121        4PZ         0.00000   0.00000   0.00000   0.00001   0.00000
 122        5D 0        0.00209  -0.00300  -0.00036  -0.00464  -0.00377
 123        5D+1        0.00000   0.00000   0.00000   0.00000   0.00000
 124        5D-1        0.00000   0.00000   0.00000   0.00000   0.00000
 125        5D+2        0.00413   0.01541   0.00765   0.00311  -0.00234
 126        5D-2        0.00139  -0.01191   0.00246   0.00246  -0.00559
 127 10  N  1S          0.00642  -0.09959   0.00198   0.00510  -0.01027
 128        2S          0.01009  -0.15665   0.00316   0.00813  -0.01625
 129        2PX         0.00160  -0.00516  -0.00280  -0.06037  -0.07849
 130        2PY        -0.00265   0.00209  -0.00377  -0.00881  -0.00995
 131        2PZ         0.00000   0.00001   0.00000   0.00000   0.00001
 132        3S         -0.02778   0.42946  -0.00940  -0.02328   0.04560
 133        3PX         0.00242  -0.00419  -0.00425  -0.08988  -0.11637
 134        3PY        -0.00419   0.00436  -0.00595  -0.01312  -0.01508
 135        3PZ         0.00000   0.00002   0.00000   0.00001   0.00001
 136        4S         -0.01632   0.31562  -0.00220  -0.02829   0.03308
 137        4PX        -0.00079  -0.00900  -0.00412  -0.05201  -0.07208
 138        4PY        -0.00242   0.01440  -0.00036  -0.00689  -0.01081
 139        4PZ         0.00000   0.00001   0.00000   0.00000   0.00001
 140        5D 0        0.00079  -0.01172   0.00012   0.00031  -0.00066
 141        5D+1        0.00000   0.00000   0.00000   0.00000   0.00000
 142        5D-1        0.00000   0.00000   0.00000   0.00000   0.00000
 143        5D+2        0.00027   0.00412   0.00124   0.00162  -0.00136
 144        5D-2        0.00065  -0.00031   0.00045  -0.00448  -0.00696
 145 11  O  1S          0.01552   0.04781   0.01878   0.01890   0.00976
 146        2S          0.02479   0.07663   0.03011   0.03054   0.01581
 147        2PX        -0.00127   0.00758  -0.00575  -0.00858   0.00205
 148        2PY         0.01106   0.02526   0.01066  -0.00141  -0.00436
 149        2PZ         0.00000   0.00000   0.00000   0.00000   0.00000
 150        3S         -0.07090  -0.22129  -0.08728  -0.09043  -0.04657
 151        3PX        -0.00208   0.01133  -0.00886  -0.01314   0.00336
 152        3PY         0.01585   0.03652   0.01504  -0.00080  -0.00466
 153        3PZ         0.00000   0.00000   0.00000   0.00000   0.00000
 154        4S         -0.05227  -0.16502  -0.06630  -0.07329  -0.04417
 155        4PX         0.00019   0.01037  -0.00261  -0.00345   0.00267
 156        4PY         0.00764   0.01406   0.00672  -0.00384  -0.00419
 157        4PZ         0.00000   0.00000   0.00000   0.00000   0.00000
 158        5D 0        0.00099   0.00256   0.00074   0.00041   0.00038
 159        5D+1        0.00000   0.00000   0.00000   0.00000   0.00000
 160        5D-1        0.00000   0.00000   0.00000   0.00000   0.00000
 161        5D+2        0.00215   0.00511   0.00229   0.00059  -0.00007
 162        5D-2        0.00034  -0.00262   0.00123   0.00188  -0.00096
 163 12  H  1S          0.01773  -0.00654   0.06715  -0.02103  -0.01493
 164        2S          0.02422  -0.00460   0.06305  -0.02321  -0.01306
 165        3S         -0.00316  -0.00164  -0.00336  -0.00385  -0.00423
 166        4PX        -0.00295  -0.00043  -0.00454   0.00406  -0.00087
 167        4PY        -0.00550   0.00112  -0.01597   0.00328   0.00296
 168        4PZ         0.00000   0.00000   0.00000   0.00000   0.00000
 169 13  H  1S          0.00536   0.00429   0.02146   0.04594   0.00398
 170        2S          0.00980   0.00470   0.02778   0.05637   0.00309
 171        3S          0.00093  -0.00029  -0.00359  -0.00119  -0.00070
 172        4PX        -0.00064   0.00041  -0.00036   0.00156   0.00180
 173        4PY         0.00158   0.00067   0.00478   0.00660   0.00000
 174        4PZ         0.00188   0.00098   0.00522   0.00837   0.00052
 175 14  H  1S          0.00536   0.00429   0.02146   0.04594   0.00398
 176        2S          0.00980   0.00470   0.02778   0.05637   0.00308
 177        3S          0.00093  -0.00029  -0.00359  -0.00119  -0.00070
 178        4PX        -0.00064   0.00041  -0.00036   0.00156   0.00180
 179        4PY         0.00158   0.00067   0.00477   0.00660   0.00000
 180        4PZ        -0.00188  -0.00098  -0.00522  -0.00837  -0.00052
 181 15  C  1S          0.00218  -0.04031   0.00230   0.04425   0.06275
 182        2S          0.00334  -0.06204   0.00355   0.06860   0.09744
 183        2PX         0.00212  -0.03361   0.00173   0.01015   0.00075
 184        2PY         0.00047  -0.01476   0.00005   0.00518   0.00301
 185        2PZ         0.00000   0.00000   0.00000   0.00000   0.00000
 186        3S         -0.00880   0.16165  -0.00949  -0.18390  -0.26198
 187        3PX         0.00385  -0.05672   0.00350   0.01978   0.00660
 188        3PY         0.00076  -0.02586   0.00007   0.00978   0.00730
 189        3PZ         0.00000   0.00000   0.00000   0.00000   0.00000
 190        4S          0.00096   0.04948  -0.00074  -0.07976  -0.13066
 191        4PX        -0.00132  -0.00093  -0.00074  -0.00399  -0.00932
 192        4PY         0.00020  -0.00683  -0.00038  -0.00079  -0.00134
 193        4PZ         0.00000   0.00000   0.00000   0.00000   0.00000
 194        5D 0        0.00067  -0.00825   0.00061   0.00296   0.00147
 195        5D+1        0.00000   0.00000   0.00000   0.00000   0.00000
 196        5D-1        0.00000   0.00000   0.00000   0.00000   0.00000
 197        5D+2       -0.00061   0.00885  -0.00055  -0.00214  -0.00043
 198        5D-2       -0.00048   0.00982  -0.00024  -0.00322  -0.00203
 199 16  H  1S         -0.00078   0.01850  -0.00099  -0.03038  -0.04840
 200        2S         -0.00152   0.02232  -0.00172  -0.03739  -0.05838
 201        3S          0.00036  -0.00125   0.00021  -0.00208  -0.00479
 202        4PX         0.00031  -0.00400   0.00029   0.00371   0.00481
 203        4PY        -0.00011   0.00126  -0.00011  -0.00171  -0.00269
 204        4PZ        -0.00028   0.00427  -0.00033  -0.00556  -0.00815
 205 17  H  1S         -0.00334   0.07371   0.00068   0.00466   0.02027
 206        2S         -0.00282   0.07139   0.00135   0.00631   0.02017
 207        3S         -0.00085   0.00019   0.00033  -0.00094   0.00209
 208        4PX         0.00008   0.00126  -0.00007  -0.00330  -0.00379
 209        4PY        -0.00094   0.01757   0.00010   0.00118   0.00380
 210        4PZ         0.00000   0.00000   0.00000   0.00000   0.00000
 211 18  H  1S         -0.00078   0.01850  -0.00099  -0.03037  -0.04839
 212        2S         -0.00152   0.02232  -0.00172  -0.03738  -0.05838
 213        3S          0.00036  -0.00125   0.00021  -0.00208  -0.00478
 214        4PX         0.00031  -0.00399   0.00029   0.00371   0.00481
 215        4PY        -0.00011   0.00126  -0.00011  -0.00170  -0.00268
 216        4PZ         0.00028  -0.00427   0.00033   0.00556   0.00815
 217 19  H  1S         -0.00132   0.01837  -0.00186  -0.03049  -0.04622
 218        2S         -0.00201   0.02509  -0.00238  -0.03709  -0.05562
 219        3S         -0.00050  -0.00081  -0.00030  -0.00221  -0.00482
 220        4PX         0.00010   0.00017   0.00016  -0.00028  -0.00117
 221        4PY         0.00034  -0.00628   0.00037   0.00676   0.00963
 222        4PZ         0.00000   0.00000   0.00000   0.00000   0.00000
                          16        17        18        19        20
                           O         O         O         O         O
     Eigenvalues --    -0.68804  -0.60530  -0.58821  -0.53989  -0.48893
   1 1   H  1S          0.04012  -0.01217   0.01275  -0.02719  -0.00002
   2        2S          0.04697  -0.01548   0.01893  -0.03238  -0.00002
   3        3S          0.00525  -0.00248   0.01294  -0.00557  -0.00001
   4        4PX        -0.00372   0.00124   0.00002   0.00486   0.00000
   5        4PY        -0.00691   0.00141  -0.00173   0.00182   0.00000
   6        4PZ         0.00000   0.00000   0.00000   0.00000   0.00145
   7 2   C  1S         -0.05296   0.01229  -0.00870   0.02033   0.00001
   8        2S         -0.08223   0.01915  -0.01358   0.03177   0.00001
   9        2PX        -0.01298   0.01586  -0.01780   0.05119   0.00002
  10        2PY         0.00116  -0.00735   0.01068  -0.03245  -0.00003
  11        2PZ         0.00000   0.00000   0.00000   0.00000   0.02500
  12        3S          0.21809  -0.05040   0.03484  -0.08428  -0.00002
  13        3PX        -0.01647   0.02335  -0.02626   0.07644   0.00003
  14        3PY         0.00008  -0.01071   0.01480  -0.04910  -0.00004
  15        3PZ         0.00000   0.00000   0.00000   0.00001   0.03749
  16        4S          0.12947  -0.04111   0.03596  -0.07612  -0.00002
  17        4PX        -0.00851   0.00856  -0.00559   0.03370   0.00002
  18        4PY         0.00393  -0.00310  -0.00315  -0.02530  -0.00002
  19        4PZ         0.00000   0.00000   0.00000   0.00000   0.02603
  20        5D 0        0.00134  -0.00171   0.00106  -0.00644   0.00000
[...]
    11  O    0.000008  -0.015986   1.901817   0.082466   2.144383   0.074328
    12  H    0.000097  -0.007225   0.000594   0.002173   0.074328   0.987239
    13  H    0.000285   0.943780  -0.007314   0.005176   0.010660   0.004875
    14  H    0.000403   0.943780  -0.007310   0.005174   0.010659   0.004872
    15  C    0.000019   0.011239  -0.013351   0.938631   0.003251   0.000144
    16  H    0.000008   0.000676   0.008707  -0.005667   0.001621   0.000003
    17  H    0.000003   0.002296  -0.003903   0.928497   0.018033   0.000457
    18  H    0.000000   0.000675   0.008707  -0.005676   0.001623   0.000003
    19  H    0.000000   0.003690  -0.007563   0.000980   0.047492   0.000188
              13         14         15         16         17         18
     1  H    0.000138   0.000137   0.000007   0.000000  -0.000013   0.000000
     2  C    0.000713   0.000712   0.000156   0.000015   0.000035   0.000014
     3  C    0.002021   0.002027   0.000292   0.000080   0.000113   0.000080
     4  N   -0.004027  -0.004028   0.001471   0.000130   0.000488   0.000130
     5  O    0.016192   0.016171   0.000100   0.000017   0.000139   0.000017
     6  H    0.000402   0.000285   0.000019   0.000000   0.000003   0.000008
     7  H    0.000285   0.000403   0.000019   0.000008   0.000003   0.000000
     8  C    0.943780   0.943780   0.011239   0.000676   0.002296   0.000675
     9  C   -0.007314  -0.007310  -0.013351   0.008707  -0.003903   0.008707
    10  N    0.005176   0.005174   0.938631  -0.005667   0.928497  -0.005676
    11  O    0.010660   0.010659   0.003251   0.001621   0.018033   0.001623
    12  H    0.004875   0.004872   0.000144   0.000003   0.000457   0.000003
    13  H    0.963900  -0.010800   0.000332   0.000182   0.000810   0.000302
    14  H   -0.010800   0.963881   0.000332   0.000301   0.000810   0.000183
    15  C    0.000332   0.000332   3.836278   0.970718  -0.002192   0.970714
    16  H    0.000182   0.000301   0.970718   0.960312  -0.000609  -0.009204
    17  H    0.000810   0.000810  -0.002192  -0.000609   0.955198  -0.000606
    18  H    0.000302   0.000183   0.970714  -0.009204  -0.000606   0.960303
    19  H    0.000172   0.000172   0.954397  -0.006665   0.010838  -0.006667
              19
     1  H    0.000000
     2  C   -0.000005
     3  C   -0.000029
     4  N    0.000150
     5  O    0.000157
     6  H    0.000000
     7  H    0.000000
     8  C    0.003690
     9  C   -0.007563
    10  N    0.000980
    11  O    0.047492
    12  H    0.000188
    13  H    0.000172
    14  H    0.000172
    15  C    0.954397
    16  H   -0.006665
    17  H    0.010838
    18  H   -0.006667
    19  H    0.997308
 Lowdin Atomic Charges:
               1
     1  H    0.006764
     2  C   -0.027696
     3  C   -0.064478
     4  N    0.086622
     5  O   -0.150141
     6  H    0.027002
     7  H    0.027001
     8  C    0.009265
     9  C   -0.056793
    10  N    0.086792
    11  O   -0.135637
    12  H    0.034734
    13  H    0.017478
    14  H    0.017477
    15  C    0.038722
    16  H    0.008682
    17  H    0.044500
    18  H    0.008676
    19  H    0.021028
 Sum of Lowdin charges  =   0.00000
 Lowdin atomic charges with hydrogens summed into heavy atoms:
               1
     1  H    0.000000
     2  C    0.033071
     3  C   -0.064478
     4  N    0.121357
     5  O   -0.150141
     6  H    0.000000
     7  H    0.000000
     8  C    0.044219
     9  C   -0.056793
    10  N    0.131293
    11  O   -0.135637
    12  H    0.000000
    13  H    0.000000
    14  H    0.000000
    15  C    0.077108
    16  H    0.000000
    17  H    0.000000
    18  H    0.000000
    19  H    0.000000
 Sum of Lowdin charges  =   0.00000
 Dipole moment from Lowdin charges (Debye):
    X=     3.1048    Y=    -0.2010    Z=     0.0000  Tot=     3.1113
 Electronic spatial extent (au):  <R**2>=           1840.5478
 Charge=              0.0000 electrons
 Dipole moment (field-independent basis, Debye):
    X=              3.3825    Y=             -0.2431    Z=              0.0004  Tot=              3.3913
 Quadrupole moment (field-independent basis, Debye-Ang):
   XX=            -48.6167   YY=            -57.8296   ZZ=            -53.7423
   XY=            -14.6935   XZ=             -0.0001   YZ=             -0.0010
 Traceless Quadrupole moment (field-independent basis, Debye-Ang):
   XX=              4.7795   YY=             -4.4334   ZZ=             -0.3461
   XY=            -14.6935   XZ=             -0.0001   YZ=             -0.0010
 Octapole moment (field-independent basis, Debye-Ang**2):
  XXX=             46.3223  YYY=             -3.1042  ZZZ=              0.0007  XYY=             12.4113
  XXY=             15.1154  XXZ=             -0.0003  XZZ=             -1.2165  YZZ=             -1.5380
  YYZ=              0.0002  XYZ=              0.0006
 Hexadecapole moment (field-independent basis, Debye-Ang**3):
 XXXX=          -1878.7985 YYYY=           -293.8921 ZZZZ=            -70.8717 XXXY=            -70.0569
 XXXZ=             -0.0157 YYYX=            -27.7902 YYYZ=             -0.0004 ZZZX=              0.0071
 ZZZY=             -0.0007 XXYY=           -413.8744 XXZZ=           -339.2933 YYZZ=            -60.4762
 XXYZ=             -0.0042 YYXZ=             -0.0049 ZZXY=              3.6730
 N-N= 4.480828779408D+02 E-N=-1.964241034741D+03  KE= 4.549416236448D+02
 Orbital energies and kinetic energies (alpha):
                                 1                 2
   1         O               -19.100213         29.128487
   2         O               -19.069666         29.128412
   3         O               -14.354298         22.049991
   4         O               -14.330007         22.049069
   5         O               -10.287978         15.961018
   6         O               -10.264296         15.961275
   7         O               -10.222330         15.959425
   8         O               -10.214909         15.958887
   9         O               -10.171333         15.956016
  10         O                -1.054975          2.466157
  11         O                -1.025970          2.486278
  12         O                -0.940451          2.100957
  13         O                -0.920037          2.162413
  14         O                -0.768476          1.552254
  15         O                -0.732439          1.483953
  16         O                -0.688036          1.575764
  17         O                -0.605305          1.644788
  18         O                -0.588213          1.616235
  19         O                -0.539893          1.492233
  20         O                -0.488930          1.079351
  21         O                -0.482521          1.827343
  22         O                -0.479899          1.510874
  23         O                -0.457703          1.789256
  24         O                -0.457345          1.085581
  25         O                -0.432380          1.065667
  26         O                -0.416505          1.705624
  27         O                -0.407084          1.487248
  28         O                -0.394813          1.307019
  29         O                -0.391345          2.154986
  30         O                -0.384494          1.539891
  31         O                -0.348205          1.586682
  32         O                -0.280351          2.311964
  33         O                -0.276941          1.934486
  34         O                -0.252914          1.960549
  35         O                -0.246642          2.390679
  36         V                 0.007224          1.918533
  37         V                 0.021003          0.724512
  38         V                 0.029906          1.912314
  39         V                 0.048159          0.747665
  40         V                 0.055972          0.714892
  41         V                 0.081809          0.808467
  42         V                 0.091853          0.793309
  43         V                 0.095105          0.633181
  44         V                 0.119541          0.801210
  45         V                 0.119880          0.849738
  46         V                 0.133461          0.862864
  47         V                 0.138907          0.999780
  48         V                 0.155565          1.620840
  49         V                 0.181333          1.512575
  50         V                 0.212332          1.617321
  51         V                 0.242885          1.708150
  52         V                 0.271764          1.113248
  53         V                 0.276585          1.718933
  54         V                 0.281749          1.336572
  55         V                 0.285084          0.888511
  56         V                 0.308836          0.907782
  57         V                 0.320116          1.056479
  58         V                 0.324669          1.282542
  59         V                 0.367292          1.906522
  60         V                 0.375163          1.415692
  61         V                 0.396967          1.756978
  62         V                 0.416848          2.108610
  63         V                 0.425058          1.882895
  64         V                 0.438360          2.123516
  65         V                 0.447216          1.336699
  66         V                 0.470703          1.769540
  67         V                 0.497470          2.165282
  68         V                 0.501768          1.482393
  69         V                 0.525302          1.936575
  70         V                 0.529096          1.878607
  71         V                 0.556160          1.756106
  72         V                 0.556341          1.939884
  73         V                 0.568708          1.830582
  74         V                 0.573256          2.014185
  75         V                 0.588492          1.708473
  76         V                 0.592417          2.324975
  77         V                 0.595282          2.035466
  78         V                 0.615199          2.389580
  79         V                 0.631313          2.935453
  80         V                 0.654106          1.846193
  81         V                 0.660362          2.567859
  82         V                 0.665370          2.298776
  83         V                 0.675777          2.147281
  84         V                 0.708602          2.240743
  85         V                 0.721908          2.001188
  86         V                 0.738302          2.085276
  87         V                 0.748153          1.975017
  88         V                 0.799495          2.164270
  89         V                 0.867239          2.021309
  90         V                 0.886621          2.497192
  91         V                 0.909848          2.048468
  92         V                 0.924474          2.424322
  93         V                 0.951922          2.296932
  94         V                 0.998216          1.931455
  95         V                 1.002927          2.265402
  96         V                 1.014668          1.890473
  97         V                 1.019590          2.385432
  98         V                 1.022256          1.921798
  99         V                 1.047715          2.429104
 100         V                 1.109380          2.479743
 101         V                 1.181972          2.673426
 102         V                 1.221489          2.228852
 103         V                 1.224281          2.627183
 104         V                 1.268915          2.289460
 105         V                 1.273703          2.264703
 106         V                 1.324697          2.537674
 107         V                 1.397722          2.337165
 108         V                 1.411099          2.373032
 109         V                 1.421703          2.340253
 110         V                 1.428970          2.087485
 111         V                 1.434330          2.813963
 112         V                 1.444863          2.103915
 113         V                 1.464132          2.519574
 114         V                 1.465688          2.335201
 115         V                 1.475657          2.881642
 116         V                 1.488551          2.528295
 117         V                 1.497969          2.333545
 118         V                 1.513021          2.285229
 119         V                 1.513771          2.741109
 120         V                 1.520685          3.375886
 121         V                 1.556019          3.140453
 122         V                 1.574974          2.470768
 123         V                 1.593015          2.975723
 124         V                 1.607794          2.893619
 125         V                 1.660940          2.749507
 126         V                 1.677617          3.159769
 127         V                 1.699967          2.653718
 128         V                 1.724129          3.339834
 129         V                 1.729028          2.670103
 130         V                 1.760188          3.057889
 131         V                 1.792755          3.380559
 132         V                 1.808970          2.884231
 133         V                 1.810443          3.190780
 134         V                 1.849913          3.070991
 135         V                 1.892228          3.481809
 136         V                 1.925944          3.265194
 137         V                 1.930405          3.501377
 138         V                 1.974079          3.356318
 139         V                 1.991115          3.388221
 140         V                 2.006513          3.449535
 141         V                 2.016350          3.280772
 142         V                 2.058679          3.382875
 143         V                 2.109508          3.634141
 144         V                 2.134081          3.658966
 145         V                 2.164878          3.928150
 146         V                 2.165083          3.699078
 147         V                 2.235960          3.769405
 148         V                 2.254025          4.050416
 149         V                 2.313649          4.193193
 150         V                 2.324665          3.861072
 151         V                 2.325614          4.004143
 152         V                 2.343563          3.882523
 153         V                 2.369305          4.165031
 154         V                 2.391070          3.860590
 155         V                 2.395134          4.269190
 156         V                 2.421428          3.765115
 157         V                 2.443842          3.990503
 158         V                 2.462591          4.682814
 159         V                 2.481946          4.192302
 160         V                 2.482873          4.326312
 161         V                 2.498558          4.475403
 162         V                 2.499083          4.348022
 163         V                 2.511909          4.295970
 164         V                 2.513305          4.108367
 165         V                 2.560586          4.269412
 166         V                 2.582406          4.629170
 167         V                 2.626433          4.518353
 168         V                 2.730513          4.720763
 169         V                 2.764330          4.743896
 170         V                 2.768140          5.382572
 171         V                 2.795704          4.762443
 172         V                 2.812881          5.396030
 173         V                 2.816484          4.609982
 174         V                 2.826173          4.562201
 175         V                 2.857836          4.839035
 176         V                 2.910249          5.041919
 177         V                 2.913476          4.621220
 178         V                 2.917385          5.045976
 179         V                 2.939923          4.615815
 180         V                 2.963690          4.947873
 181         V                 3.041619          6.342796
 182         V                 3.092650          5.589463
 183         V                 3.133431          5.467717
 184         V                 3.215194          5.289928
 185         V                 3.317689          5.196164
 186         V                 3.319464          6.827111
 187         V                 3.350556          5.157007
 188         V                 3.381567          6.694111
 189         V                 3.488306          5.994836
 190         V                 3.569715          6.719146
 191         V                 3.583356          6.002879
 192         V                 3.641633          7.131575
 193         V                 3.654673          6.292926
 194         V                 3.710037          6.844658
 195         V                 3.726001          6.660038
 196         V                 3.780833          6.368334
 197         V                 3.802341          6.667182
 198         V                 3.812287          6.680659
 199         V                 3.842700          6.570379
 200         V                 3.851922          8.041402
 201         V                 3.879919          8.228597
 202         V                 4.057693          7.412469
 203         V                 4.127177          7.476234
 204         V                 4.756307          9.455614
 205         V                 4.835011          9.400913
 206         V                 4.897809         11.704428
 207         V                 4.931178         11.715257
 208         V                 4.931659          9.590484
 209         V                 4.980226         10.381570
 210         V                 5.090581         11.653317
 211         V                 5.163737         11.106142
 212         V                 5.652092         11.789718
 213         V                 5.658208         11.809404
 214         V                23.778524         60.287071
 215         V                23.802138         60.311745
 216         V                23.811841         60.295294
 217         V                23.867269         60.333426
 218         V                23.916387         60.351941
 219         V                35.561417         89.005520
 220         V                35.594003         89.005627
 221         V                49.978137        123.696632
 222         V                50.007443        123.696930
 Total kinetic energy from orbitals= 4.549416236448D+02

 Test job not archived.
 1\1\GINC-KADET27\SP\RB3LYP\6-311G(d,p)\C5H10N2O2\MDOROHUN\15-Apr-2026\
 0\\# B3LYP/6-311G(d,p) GFInput Pop=Full IOP(6/80=1)\\gly_3 zamkniętop
 owłokowa cząsteczka\\0,1\H,0,4.498682,-2.780529,4.923845\C,0,3.64924
 5,-3.328024,4.503921\C,0,3.13809,-2.749538,3.192902\N,0,3.799782,-1.65
 1049,2.736786\O,0,2.19157,-3.237975,2.583051\H,0,2.831793,-3.330484,5.
 231625\H,0,3.942301,-4.369678,4.340075\C,0,3.421142,-1.001561,1.508203
 \C,0,4.354357,0.191647,1.280749\N,0,4.103785,0.897747,0.146156\O,0,5.2
 5019,0.469218,2.073373\H,0,4.58294,-1.231836,3.223959\H,0,2.376179,-0.
 66286,1.549951\H,0,3.48419,-1.698899,0.660758\C,0,4.877223,2.063198,-0
 .248354\H,0,4.242401,2.954268,-0.314759\H,0,3.344602,0.596818,-0.44930
 7\H,0,5.36669,1.903161,-1.215946\H,0,5.63911,2.223515,0.515162\\Versio
 n=ES64L-G09RevD.01\State=1-A\HF=-456.6704326\RMSD=4.515e-09\Dipole=0.2
 809134,1.0091915,-0.8263092\Quadrupole=-5.8206571,-2.0007781,7.8214352
 ,-6.571339,0.7275872,-6.1544892\PG=C01 [X(C5H10N2O2)]\\@


 ON INDUCTION, OR "WHY DO YOU BELIEVE THE SUN WILL RISE TOMORROW?":

 ... THE FARMER WHO HAS FED THE CHICKEN EVERY DAY THROUGHOUT ITS
 LIFE AT LAST WRINGS ITS NECK INSTEAD, SHOWING THAT MORE REFINED VIEWS
 AS TO THE UNIFORMITY OF NATURE WOULD HAVE BEEN USEFUL TO THE CHICKEN.

                               -- BERTRAND RUSSELL
 Job cpu time:       0 days  0 hours  0 minutes 24.6 seconds.
 File lengths (MBytes):  RWF=     29 Int=      0 D2E=      0 Chk=      3 Scr=      1
 Normal termination of Gaussian 09 at Wed Apr 15 13:17:50 2026.
