 Entering Gaussian System, Link 0=/opt/g09/g09/g09
 Input=H.inp
 Output=H.log
 Initial command:
 /opt/g09/g09/l1.exe "/tmp/Gau-6237.inp" -scrdir="/tmp/"
 Entering Link 1 = /opt/g09/g09/l1.exe PID=      6239.
  
 Copyright (c) 1988,1990,1992,1993,1995,1998,2003,2009,2013,
            Gaussian, Inc.  All Rights Reserved.
  
 This is part of the Gaussian(R) 09 program.  It is based on
 the Gaussian(R) 03 system (copyright 2003, Gaussian, Inc.),
 the Gaussian(R) 98 system (copyright 1998, Gaussian, Inc.),
 the Gaussian(R) 94 system (copyright 1995, Gaussian, Inc.),
 the Gaussian 92(TM) system (copyright 1992, Gaussian, Inc.),
 the Gaussian 90(TM) system (copyright 1990, Gaussian, Inc.),
 the Gaussian 88(TM) system (copyright 1988, Gaussian, Inc.),
 the Gaussian 86(TM) system (copyright 1986, Carnegie Mellon
 University), and the Gaussian 82(TM) system (copyright 1983,
 Carnegie Mellon University). Gaussian is a federally registered
 trademark of Gaussian, Inc.
  
 This software contains proprietary and confidential information,
 including trade secrets, belonging to Gaussian, Inc.
  
 This software is provided under written license and may be
 used, copied, transmitted, or stored only in accord with that
 written license.
  
 The following legend is applicable only to US Government
 contracts under FAR:
  
                    RESTRICTED RIGHTS LEGEND
  
 Use, reproduction and disclosure by the US Government is
 subject to restrictions as set forth in subparagraphs (a)
 and (c) of the Commercial Computer Software - Restricted
 Rights clause in FAR 52.227-19.
  
 Gaussian, Inc.
 340 Quinnipiac St., Bldg. 40, Wallingford CT 06492
  
  
 ---------------------------------------------------------------
 Warning -- This program may not be used in any manner that
 competes with the business of Gaussian, Inc. or will provide
 assistance to any competitor of Gaussian, Inc.  The licensee
 of this program is prohibited from giving any competitor of
 Gaussian, Inc. access to this program.  By using this program,
 the user acknowledges that Gaussian, Inc. is engaged in the
 business of creating and licensing software in the field of
 computational chemistry and represents and warrants to the
 licensee that it is not a competitor of Gaussian, Inc. and that
 it will not use this program in any manner prohibited above.
 ---------------------------------------------------------------
  

 Cite this work as:
 Gaussian 09, Revision D.01,
 M. J. Frisch, G. W. Trucks, H. B. Schlegel, G. E. Scuseria, 
 M. A. Robb, J. R. Cheeseman, G. Scalmani, V. Barone, B. Mennucci, 
 G. A. Petersson, H. Nakatsuji, M. Caricato, X. Li, H. P. Hratchian, 
 A. F. Izmaylov, J. Bloino, G. Zheng, J. L. Sonnenberg, M. Hada, 
 M. Ehara, K. Toyota, R. Fukuda, J. Hasegawa, M. Ishida, T. Nakajima, 
 Y. Honda, O. Kitao, H. Nakai, T. Vreven, J. A. Montgomery, Jr., 
 J. E. Peralta, F. Ogliaro, M. Bearpark, J. J. Heyd, E. Brothers, 
 K. N. Kudin, V. N. Staroverov, T. Keith, R. Kobayashi, J. Normand, 
 K. Raghavachari, A. Rendell, J. C. Burant, S. S. Iyengar, J. Tomasi, 
 M. Cossi, N. Rega, J. M. Millam, M. Klene, J. E. Knox, J. B. Cross, 
 V. Bakken, C. Adamo, J. Jaramillo, R. Gomperts, R. E. Stratmann, 
 O. Yazyev, A. J. Austin, R. Cammi, C. Pomelli, J. W. Ochterski, 
 R. L. Martin, K. Morokuma, V. G. Zakrzewski, G. A. Voth, 
 P. Salvador, J. J. Dannenberg, S. Dapprich, A. D. Daniels, 
 O. Farkas, J. B. Foresman, J. V. Ortiz, J. Cioslowski, 
 and D. J. Fox, Gaussian, Inc., Wallingford CT, 2013.
 
 ******************************************
 Gaussian 09:  ES64L-G09RevD.01 24-Apr-2013
                15-Apr-2026 
 ******************************************
 -------------------------------------------------
 # UB3LYP/6-311G(d,p) GFInput Pop=Full IOP(6/80=1)
 -------------------------------------------------
 1/38=1/1;
 2/12=2,17=6,18=5,40=1/2;
 3/5=4,6=6,7=101,11=2,16=1,24=10,25=1,30=1,74=-5,116=2/1,2,3;
 4//1;
 5/5=2,38=5/2;
 6/7=3,28=1,80=1/1;
 99/5=1,9=1/99;
 -----
 wodor
 -----
 Symbolic Z-matrix:
 Charge =  0 Multiplicity = 2
 H                     0.        0.        0. 
 
                          Input orientation:                          
 ---------------------------------------------------------------------
 Center     Atomic      Atomic             Coordinates (Angstroms)
 Number     Number       Type             X           Y           Z
 ---------------------------------------------------------------------
      1          1           0        0.000000    0.000000    0.000000
 ---------------------------------------------------------------------
 Stoichiometry    H(2)
 Framework group  OH[O(H)]
 Deg. of freedom     0
 Full point group                 OH      NOp  48
 Largest Abelian subgroup         D2H     NOp   8
 Largest concise Abelian subgroup C1      NOp   1
                         Standard orientation:                         
 ---------------------------------------------------------------------
 Center     Atomic      Atomic             Coordinates (Angstroms)
 Number     Number       Type             X           Y           Z
 ---------------------------------------------------------------------
      1          1           0        0.000000    0.000000    0.000000
 ---------------------------------------------------------------------
 Standard basis: 6-311G(d,p) (5D, 7F)
 AO basis set in the form of general basis input (Overlap normalization):
      1 0
 S   3 1.00       0.000000000000
      0.3386500000D+02  0.2549381454D-01
      0.5094790000D+01  0.1903731086D+00
      0.1158790000D+01  0.8521614860D+00
 S   1 1.00       0.000000000000
      0.3258400000D+00  0.1000000000D+01
 S   1 1.00       0.000000000000
      0.1027410000D+00  0.1000000000D+01
 P   1 1.00       0.000000000000
      0.7500000000D+00  0.1000000000D+01
 ****

 There are     3 symmetry adapted cartesian basis functions of AG  symmetry.
 There are     0 symmetry adapted cartesian basis functions of B1G symmetry.
 There are     0 symmetry adapted cartesian basis functions of B2G symmetry.
 There are     0 symmetry adapted cartesian basis functions of B3G symmetry.
 There are     0 symmetry adapted cartesian basis functions of AU  symmetry.
 There are     1 symmetry adapted cartesian basis functions of B1U symmetry.
 There are     1 symmetry adapted cartesian basis functions of B2U symmetry.
 There are     1 symmetry adapted cartesian basis functions of B3U symmetry.
 There are     3 symmetry adapted basis functions of AG  symmetry.
 There are     0 symmetry adapted basis functions of B1G symmetry.
 There are     0 symmetry adapted basis functions of B2G symmetry.
 There are     0 symmetry adapted basis functions of B3G symmetry.
 There are     0 symmetry adapted basis functions of AU  symmetry.
 There are     1 symmetry adapted basis functions of B1U symmetry.
 There are     1 symmetry adapted basis functions of B2U symmetry.
 There are     1 symmetry adapted basis functions of B3U symmetry.
     6 basis functions,     8 primitive gaussians,     6 cartesian basis functions
     1 alpha electrons        0 beta electrons
       nuclear repulsion energy         0.0000000000 Hartrees.
 NAtoms=    1 NActive=    1 NUniq=    1 SFac= 1.00D+00 NAtFMM=   60 NAOKFM=F Big=F
 Integral buffers will be    131072 words long.
 Raffenetti 2 integral format.
 Two-electron integral symmetry is turned on.
 One-electron integrals computed using PRISM.
 NBasis=     6 RedAO= T EigKep=  3.09D-01  NBF=     3     0     0     0     0     1     1     1
 NBsUse=     6 1.00D-06 EigRej= -1.00D+00 NBFU=     3     0     0     0     0     1     1     1
 ExpMin= 1.03D-01 ExpMax= 3.39D+01 ExpMxC= 3.39D+01 IAcc=1 IRadAn=         1 AccDes= 0.00D+00
 Harris functional with IExCor=  402 and IRadAn=       1 diagonalized for initial guess.
 HarFok:  IExCor=  402 AccDes= 0.00D+00 IRadAn=         1 IDoV= 1 UseB2=F ITyADJ=14
 ICtDFT=  3500011 ScaDFX=  1.000000  1.000000  1.000000  1.000000
 FoFCou: FMM=F IPFlag=           0 FMFlag=      100000 FMFlg1=           0
         NFxFlg=           0 DoJE=T BraDBF=F KetDBF=T FulRan=T
         wScrn=  0.000000 ICntrl=     500 IOpCl=  0 I1Cent=   200000004 NGrid=           0
         NMat0=    1 NMatS0=      1 NMatT0=    0 NMatD0=    1 NMtDS0=    0 NMtDT0=    0
 Petite list used in FoFCou.
 Initial guess orbital symmetries:
 Alpha Orbitals:
       Occupied  (A1G)
       Virtual   (A1G) (T1U) (T1U) (T1U) (A1G)
 Beta  Orbitals:
       Virtual   (A1G) (A1G) (T1U) (T1U) (T1U) (A1G)
 The electronic state of the initial guess is 2-A1G.
 Initial guess <Sx>= 0.0000 <Sy>= 0.0000 <Sz>= 0.5000 <S**2>= 0.7500 S= 0.5000
 Keep R1 and R2 ints in memory in symmetry-blocked form, NReq=864020.
 Requested convergence on RMS density matrix=1.00D-08 within 128 cycles.
 Requested convergence on MAX density matrix=1.00D-06.
 Requested convergence on             energy=1.00D-06.
 No special actions if energy rises.
 Integral accuracy reduced to 1.0D-05 until final iterations.
 Initial convergence to 1.0D-05 achieved.  Increase integral accuracy.
 SCF Done:  E(UB3LYP) = -0.502155930031     A.U. after    6 cycles
            NFock=  6  Conv=0.79D-12     -V/T= 2.0077
 <Sx>= 0.0000 <Sy>= 0.0000 <Sz>= 0.5000 <S**2>= 0.7500 S= 0.5000
 <L.S>= 0.000000000000E+00
 Annihilation of the first spin contaminant:
 S**2 before annihilation     0.7500,   after     0.7500

 **********************************************************************

            Population analysis using the SCF density.

 **********************************************************************

 Orbital symmetries:
 Alpha Orbitals:
       Occupied  (A1G)
       Virtual   (A1G) (T1U) (T1U) (T1U) (A1G)
 Beta  Orbitals:
       Virtual   (A1G) (A1G) (T1U) (T1U) (T1U) (A1G)
 The electronic state is 2-A1G.
 Alpha  occ. eigenvalues --   -0.32170
 Alpha virt. eigenvalues --    0.24504   1.25319   1.25319   1.25319   2.14455
  Beta virt. eigenvalues --    0.02946   0.46427   1.58489   1.58489   1.58489
  Beta virt. eigenvalues --    2.56407
     Alpha Molecular Orbital Coefficients:
                           1         2         3         4         5
                       (A1G)--O  (A1G)--V  (T1U)--V  (T1U)--V  (T1U)--V
     Eigenvalues --    -0.32170   0.24504   1.25319   1.25319   1.25319
   1 1   H  1S          0.24961  -0.14153   0.00000   0.00000   0.00000
   2        2S          0.46705  -1.27355   0.00000   0.00000   0.00000
   3        3S          0.41465   1.52890   0.00000   0.00000   0.00000
   4        4PX         0.00000   0.00000   0.00000   0.00000   1.00000
   5        4PY         0.00000   0.00000   0.00000   1.00000   0.00000
   6        4PZ         0.00000   0.00000   1.00000   0.00000   0.00000
                           6
                       (A1G)--V
     Eigenvalues --     2.14455
   1 1   H  1S         -1.53186
   2        2S          1.92231
   3        3S         -0.84496
   4        4PX         0.00000
   5        4PY         0.00000
   6        4PZ         0.00000
     Beta Molecular Orbital Coefficients:
                           1         2         3         4         5
                       (A1G)--V  (A1G)--V  (T1U)--V  (T1U)--V  (T1U)--V
     Eigenvalues --     0.02946   0.46427   1.58489   1.58489   1.58489
   1 1   H  1S          0.14589   0.10521   0.00000   0.00000   0.00000
   2        2S          0.03897   1.49563   0.00000   0.00000   0.00000
   3        3S          0.90288  -1.34753   0.00000   0.00000   0.00000
   4        4PX         0.00000   0.00000   0.00000   0.00000   1.00000
   5        4PY         0.00000   0.00000   0.00000   1.00000   0.00000
   6        4PZ         0.00000   0.00000   1.00000   0.00000   0.00000
                           6
                       (A1G)--V
     Eigenvalues --     2.56407
   1 1   H  1S         -1.54809
   2        2S          1.81574
   3        3S         -0.76967
   4        4PX         0.00000
   5        4PY         0.00000
   6        4PZ         0.00000
     Alpha Density Matrix:
                           1         2         3         4         5
   1 1   H  1S          0.06231
   2        2S          0.11658   0.21813
   3        3S          0.10350   0.19366   0.17193
   4        4PX         0.00000   0.00000   0.00000   0.00000
   5        4PY         0.00000   0.00000   0.00000   0.00000   0.00000
   6        4PZ         0.00000   0.00000   0.00000   0.00000   0.00000
                           6
   6        4PZ         0.00000
     Beta Density Matrix:
                           1         2         3         4         5
   1 1   H  1S          0.00000
   2        2S          0.00000   0.00000
   3        3S          0.00000   0.00000   0.00000
   4        4PX         0.00000   0.00000   0.00000   0.00000
   5        4PY         0.00000   0.00000   0.00000   0.00000   0.00000
   6        4PZ         0.00000   0.00000   0.00000   0.00000   0.00000
                           6
   6        4PZ         0.00000
    Full Mulliken population analysis:
                           1         2         3         4         5
   1 1   H  1S          0.06231
   2        2S          0.08235   0.21813
   3        3S          0.03867   0.15279   0.17193
   4        4PX         0.00000   0.00000   0.00000   0.00000
   5        4PY         0.00000   0.00000   0.00000   0.00000   0.00000
   6        4PZ         0.00000   0.00000   0.00000   0.00000   0.00000
                           6
   6        4PZ         0.00000
     Gross orbital populations:
                         Total     Alpha     Beta      Spin
   1 1   H  1S          0.18333   0.18333   0.00000   0.18333
   2        2S          0.45327   0.45327   0.00000   0.45327
   3        3S          0.36340   0.36340   0.00000   0.36340
   4        4PX         0.00000   0.00000   0.00000   0.00000
   5        4PY         0.00000   0.00000   0.00000   0.00000
   6        4PZ         0.00000   0.00000   0.00000   0.00000
          Condensed to atoms (all electrons):
               1
     1  H    1.000000
          Atomic-Atomic Spin Densities.
               1
     1  H    1.000000
 Mulliken charges and spin densities:
               1          2
     1  H    0.000000   1.000000
 Sum of Mulliken charges =   0.00000   1.00000
 Mulliken charges and spin densities with hydrogens summed into heavy atoms:
               1          2
 Atomic Valencies and Mayer Atomic Bond Orders:
               1
     1  H    0.000000
 Lowdin Atomic Charges:
               1
     1  H    0.000000
 Sum of Lowdin charges  =   0.00000
 Lowdin atomic charges with hydrogens summed into heavy atoms:
               1
     1  H    0.000000
 Sum of Lowdin charges  =   0.00000
 Dipole moment from Lowdin charges (Debye):
    X=     0.0000    Y=     0.0000    Z=     0.0000  Tot=     0.0000
 Electronic spatial extent (au):  <R**2>=              3.1014
 Charge=              0.0000 electrons
 Dipole moment (field-independent basis, Debye):
    X=              0.0000    Y=              0.0000    Z=              0.0000  Tot=              0.0000
 Quadrupole moment (field-independent basis, Debye-Ang):
   XX=             -1.3905   YY=             -1.3905   ZZ=             -1.3905
   XY=              0.0000   XZ=              0.0000   YZ=              0.0000
 Traceless Quadrupole moment (field-independent basis, Debye-Ang):
   XX=              0.0000   YY=              0.0000   ZZ=              0.0000
   XY=              0.0000   XZ=              0.0000   YZ=              0.0000
 Octapole moment (field-independent basis, Debye-Ang**2):
  XXX=              0.0000  YYY=              0.0000  ZZZ=              0.0000  XYY=              0.0000
  XXY=              0.0000  XXZ=              0.0000  XZZ=              0.0000  YZZ=              0.0000
  YYZ=              0.0000  XYZ=              0.0000
 Hexadecapole moment (field-independent basis, Debye-Ang**3):
 XXXX=             -1.7999 YYYY=             -1.7999 ZZZZ=             -1.7999 XXXY=              0.0000
 XXXZ=              0.0000 YYYX=              0.0000 YYYZ=              0.0000 ZZZX=              0.0000
 ZZZY=              0.0000 XXYY=             -0.6000 XXZZ=             -0.6000 YYZZ=             -0.6000
 XXYZ=              0.0000 YYXZ=              0.0000 ZZXY=              0.0000
 N-N= 0.000000000000D+00 E-N=-9.978323607235D-01  KE= 4.983405025201D-01
 Symmetry AG   KE= 4.983405025201D-01
 Symmetry B1G  KE= 0.000000000000D+00
 Symmetry B2G  KE= 0.000000000000D+00
 Symmetry B3G  KE= 0.000000000000D+00
 Symmetry AU   KE= 0.000000000000D+00
 Symmetry B1U  KE= 0.000000000000D+00
 Symmetry B2U  KE= 0.000000000000D+00
 Symmetry B3U  KE= 0.000000000000D+00
 Orbital energies and kinetic energies (alpha):
                                 1                 2
   1         (A1G)--O         -0.321701          0.498341
   2         (A1G)--V          0.245045          0.631079
   3         (T1U)--V          1.253194          1.875000
   4         (T1U)--V          1.253194          1.875000
   5         (T1U)--V          1.253194          1.875000
   6         (A1G)--V          2.144549          3.764211
 Orbital energies and kinetic energies (beta):
                                 1                 2
   1         (A1G)--V          0.029460          0.222694
   2         (A1G)--V          0.464268          0.796088
   3         (T1U)--V          1.584887          1.875000
   4         (T1U)--V          1.584887          1.875000
   5         (T1U)--V          1.584887          1.875000
   6         (A1G)--V          2.564070          3.874848
 Total kinetic energy from orbitals= 4.983405025201D-01
                          Isotropic Fermi Contact Couplings
        Atom                 a.u.       MegaHertz       Gauss      10(-4) cm-1
     1  H(1)               0.29705    1327.75599     473.77634     442.89173
 --------------------------------------------------------
       Center         ----  Spin Dipole Couplings  ----
                      3XX-RR        3YY-RR        3ZZ-RR
 --------------------------------------------------------
     1   Atom        0.000000      0.000000      0.000000
 --------------------------------------------------------
                        XY            XZ            YZ
 --------------------------------------------------------
     1   Atom        0.000000      0.000000      0.000000
 --------------------------------------------------------


 ---------------------------------------------------------------------------------
              Anisotropic Spin Dipole Couplings in Principal Axis System
 ---------------------------------------------------------------------------------

       Atom             a.u.   MegaHertz   Gauss  10(-4) cm-1        Axes

              Baa     0.0000     0.000     0.000     0.000  1.0000  0.0000  0.0000
     1 H(1)   Bbb     0.0000     0.000     0.000     0.000  0.0000  1.0000  0.0000
              Bcc     0.0000     0.000     0.000     0.000  0.0000  0.0000  1.0000
 

 ---------------------------------------------------------------------------------


 Test job not archived.
 1\1\GINC-KADET27\SP\UB3LYP\6-311G(d,p)\H1(2)\MDOROHUN\15-Apr-2026\0\\#
  UB3LYP/6-311G(d,p) GFInput Pop=Full IOP(6/80=1)\\wodor\\0,2\H,0,0.,0.
 ,0.\\Version=ES64L-G09RevD.01\State=2-A1G\HF=-0.5021559\S2=0.75\S2-1=0
 .\S2A=0.75\RMSD=7.876e-13\Dipole=0.,0.,0.\Quadrupole=0.,0.,0.,0.,0.,0.
 \PG=OH [O(H1)]\\@


 NOTHING RESEMBLES A NEW PHENOMENON AS MUCH AS A MISTAKE.

                               -- ENRICO FERMI (?)
 Job cpu time:       0 days  0 hours  0 minutes  0.3 seconds.
 File lengths (MBytes):  RWF=      5 Int=      0 D2E=      0 Chk=      1 Scr=      1
 Normal termination of Gaussian 09 at Wed Apr 15 13:23:07 2026.
